# y+ ()       
# Time        	patch         	min           	max           	average       
0             	walls	0.000000e+00	0.000000e+00	0.000000e+00
0             	innerCylinder	0.000000e+00	0.000000e+00	0.000000e+00
0             	innerCylinder_slave	0.000000e+00	0.000000e+00	0.000000e+00
0             	propellerTip	6.853713e-01	9.152659e+00	2.823149e+00
2.00323e-05   	walls	2.569817e-01	3.689366e+01	9.535482e+00
2.00323e-05   	innerCylinder	0.000000e+00	0.000000e+00	0.000000e+00
2.00323e-05   	innerCylinder_slave	0.000000e+00	0.000000e+00	0.000000e+00
2.00323e-05   	propellerTip	1.176490e+00	5.639916e+04	8.362878e+02
2.20667e-05   	walls	6.108980e-02	3.434853e+01	9.093375e+00
2.20667e-05   	innerCylinder	0.000000e+00	0.000000e+00	0.000000e+00
2.20667e-05   	innerCylinder_slave	0.000000e+00	0.000000e+00	0.000000e+00
2.20667e-05   	propellerTip	1.222519e+00	2.750343e+04	6.443703e+02
2.70571e-05   	walls	8.832267e-02	3.279121e+01	8.786631e+00
2.70571e-05   	innerCylinder	0.000000e+00	0.000000e+00	0.000000e+00
2.70571e-05   	innerCylinder_slave	0.000000e+00	0.000000e+00	0.000000e+00
2.70571e-05   	propellerTip	1.248589e+00	1.463990e+04	4.690518e+02
3.75473e-05   	walls	1.037310e-01	3.172500e+01	8.555022e+00
3.75473e-05   	innerCylinder	0.000000e+00	0.000000e+00	0.000000e+00
3.75473e-05   	innerCylinder_slave	0.000000e+00	0.000000e+00	0.000000e+00
3.75473e-05   	propellerTip	1.267717e+00	8.090467e+03	3.352839e+02
6.1006e-05    	walls	8.791503e-02	3.090911e+01	8.390962e+00
6.1006e-05    	innerCylinder	0.000000e+00	0.000000e+00	0.000000e+00
6.1006e-05    	innerCylinder_slave	0.000000e+00	0.000000e+00	0.000000e+00
6.1006e-05    	propellerTip	1.381190e+00	4.384628e+03	2.314159e+02
0.00010428    	walls	1.126469e-01	3.073641e+01	8.396121e+00
0.00010428    	innerCylinder	0.000000e+00	0.000000e+00	0.000000e+00
0.00010428    	innerCylinder_slave	0.000000e+00	0.000000e+00	0.000000e+00
0.00010428    	propellerTip	1.507320e+00	2.349201e+03	1.620907e+02
0.000161728   	walls	2.064147e-01	3.125086e+01	8.574400e+00
0.000161728   	innerCylinder	0.000000e+00	0.000000e+00	0.000000e+00
0.000161728   	innerCylinder_slave	0.000000e+00	0.000000e+00	0.000000e+00
0.000161728   	propellerTip	2.113319e+00	1.455912e+03	1.189399e+02
0.00023112    	walls	8.248068e-02	3.226174e+01	8.863919e+00
0.00023112    	innerCylinder	0.000000e+00	0.000000e+00	0.000000e+00
0.00023112    	innerCylinder_slave	0.000000e+00	0.000000e+00	0.000000e+00
0.00023112    	propellerTip	2.521228e+00	8.705519e+02	9.059377e+01
0.000296967   	walls	1.682461e-01	3.334399e+01	9.159584e+00
0.000296967   	innerCylinder	0.000000e+00	0.000000e+00	0.000000e+00
0.000296967   	innerCylinder_slave	0.000000e+00	0.000000e+00	0.000000e+00
0.000296967   	propellerTip	2.518162e+00	5.822419e+02	7.417981e+01
0.000354394   	walls	1.356571e-01	3.429985e+01	9.419142e+00
0.000354394   	innerCylinder	0.000000e+00	0.000000e+00	0.000000e+00
0.000354394   	innerCylinder_slave	0.000000e+00	0.000000e+00	0.000000e+00
0.000354394   	propellerTip	2.553981e+00	4.229232e+02	6.410936e+01
0.000404751   	walls	3.109438e-02	3.513099e+01	9.643377e+00
0.000404751   	innerCylinder	0.000000e+00	0.000000e+00	0.000000e+00
0.000404751   	innerCylinder_slave	0.000000e+00	0.000000e+00	0.000000e+00
0.000404751   	propellerTip	2.653492e+00	4.023314e+02	5.727975e+01
0.000455545   	walls	1.256953e-01	3.596468e+01	9.865471e+00
0.000455545   	innerCylinder	0.000000e+00	0.000000e+00	0.000000e+00
0.000455545   	innerCylinder_slave	0.000000e+00	0.000000e+00	0.000000e+00
0.000455545   	propellerTip	2.859163e+00	3.830174e+02	5.173910e+01
0.000509482   	walls	2.090860e-01	3.683352e+01	1.009608e+01
0.000509482   	innerCylinder	0.000000e+00	0.000000e+00	0.000000e+00
0.000509482   	innerCylinder_slave	0.000000e+00	0.000000e+00	0.000000e+00
0.000509482   	propellerTip	2.660418e+00	3.650309e+02	4.697328e+01
0.000568041   	walls	7.998435e-02	3.775082e+01	1.033952e+01
0.000568041   	innerCylinder	0.000000e+00	0.000000e+00	0.000000e+00
0.000568041   	innerCylinder_slave	0.000000e+00	0.000000e+00	0.000000e+00
0.000568041   	propellerTip	2.113812e+00	3.382485e+02	4.284175e+01
0.000629341   	walls	1.783143e-01	3.867805e+01	1.058553e+01
0.000629341   	innerCylinder	0.000000e+00	0.000000e+00	0.000000e+00
0.000629341   	innerCylinder_slave	0.000000e+00	0.000000e+00	0.000000e+00
0.000629341   	propellerTip	1.833794e+00	3.160019e+02	3.946251e+01
0.000692227   	walls	1.161233e-01	3.959941e+01	1.082946e+01
0.000692227   	innerCylinder	0.000000e+00	0.000000e+00	0.000000e+00
0.000692227   	innerCylinder_slave	0.000000e+00	0.000000e+00	0.000000e+00
0.000692227   	propellerTip	1.828488e+00	2.982898e+02	3.679000e+01
0.000756424   	walls	2.536053e-01	4.050374e+01	1.107117e+01
0.000756424   	innerCylinder	0.000000e+00	0.000000e+00	0.000000e+00
0.000756424   	innerCylinder_slave	0.000000e+00	0.000000e+00	0.000000e+00
0.000756424   	propellerTip	2.157261e+00	2.806589e+02	3.471100e+01
0.000821157   	walls	2.527538e-02	4.137667e+01	1.130717e+01
0.000821157   	innerCylinder	0.000000e+00	0.000000e+00	0.000000e+00
0.000821157   	innerCylinder_slave	0.000000e+00	0.000000e+00	0.000000e+00
0.000821157   	propellerTip	2.533920e+00	2.722605e+02	3.315945e+01
0.000885185   	walls	4.082241e-02	4.220128e+01	1.153387e+01
0.000885185   	innerCylinder	0.000000e+00	0.000000e+00	0.000000e+00
0.000885185   	innerCylinder_slave	0.000000e+00	0.000000e+00	0.000000e+00
0.000885185   	propellerTip	3.008894e+00	2.562533e+02	3.204572e+01
0.000947867   	walls	7.362487e-02	4.297521e+01	1.174975e+01
0.000947867   	innerCylinder	0.000000e+00	0.000000e+00	0.000000e+00
0.000947867   	innerCylinder_slave	0.000000e+00	0.000000e+00	0.000000e+00
0.000947867   	propellerTip	3.486153e+00	2.511231e+02	3.126740e+01
0.00100935    	walls	1.368281e-01	4.370790e+01	1.195590e+01
0.00100935    	innerCylinder	0.000000e+00	0.000000e+00	0.000000e+00
0.00100935    	innerCylinder_slave	0.000000e+00	0.000000e+00	0.000000e+00
0.00100935    	propellerTip	3.485974e+00	2.455669e+02	3.073561e+01
0.00107       	walls	2.588336e-01	4.440282e+01	1.215349e+01
0.00107       	innerCylinder	0.000000e+00	0.000000e+00	0.000000e+00
0.00107       	innerCylinder_slave	0.000000e+00	0.000000e+00	0.000000e+00
0.00107       	propellerTip	3.552453e+00	2.398366e+02	3.037893e+01
0.00112997    	walls	2.096733e-01	4.506585e+01	1.234295e+01
0.00112997    	innerCylinder	0.000000e+00	0.000000e+00	0.000000e+00
0.00112997    	innerCylinder_slave	0.000000e+00	0.000000e+00	0.000000e+00
0.00112997    	propellerTip	3.736176e+00	2.339893e+02	3.016035e+01
0.00118907    	walls	9.985052e-02	4.569652e+01	1.252541e+01
0.00118907    	innerCylinder	0.000000e+00	0.000000e+00	0.000000e+00
0.00118907    	innerCylinder_slave	0.000000e+00	0.000000e+00	0.000000e+00
0.00118907    	propellerTip	4.307852e+00	2.275457e+02	3.004936e+01
0.0012476     	walls	2.505952e-01	4.630001e+01	1.270152e+01
0.0012476     	innerCylinder	0.000000e+00	0.000000e+00	0.000000e+00
0.0012476     	innerCylinder_slave	0.000000e+00	0.000000e+00	0.000000e+00
0.0012476     	propellerTip	4.808731e+00	2.208605e+02	3.001717e+01
0.00130603    	walls	1.852588e-01	4.688155e+01	1.287279e+01
0.00130603    	innerCylinder	0.000000e+00	0.000000e+00	0.000000e+00
0.00130603    	innerCylinder_slave	0.000000e+00	0.000000e+00	0.000000e+00
0.00130603    	propellerTip	4.890614e+00	2.144643e+02	3.004168e+01
0.0013638     	walls	2.467390e-01	4.743645e+01	1.303856e+01
0.0013638     	innerCylinder	0.000000e+00	0.000000e+00	0.000000e+00
0.0013638     	innerCylinder_slave	0.000000e+00	0.000000e+00	0.000000e+00
0.0013638     	propellerTip	5.102468e+00	2.084453e+02	3.009471e+01
0.00142165    	walls	1.371183e-01	4.797100e+01	1.320001e+01
0.00142165    	innerCylinder	0.000000e+00	0.000000e+00	0.000000e+00
0.00142165    	innerCylinder_slave	0.000000e+00	0.000000e+00	0.000000e+00
0.00142165    	propellerTip	5.182420e+00	2.016348e+02	3.016050e+01
0.00147974    	walls	1.680126e-01	4.848978e+01	1.335860e+01
0.00147974    	innerCylinder	0.000000e+00	0.000000e+00	0.000000e+00
0.00147974    	innerCylinder_slave	0.000000e+00	0.000000e+00	0.000000e+00
0.00147974    	propellerTip	5.367855e+00	1.933514e+02	3.022686e+01
0.00153825    	walls	9.756734e-02	4.899534e+01	1.351442e+01
0.00153825    	innerCylinder	0.000000e+00	0.000000e+00	0.000000e+00
0.00153825    	innerCylinder_slave	0.000000e+00	0.000000e+00	0.000000e+00
0.00153825    	propellerTip	5.290967e+00	1.831847e+02	3.028124e+01
0.0015975     	walls	2.072959e-01	4.949201e+01	1.366891e+01
0.0015975     	innerCylinder	0.000000e+00	0.000000e+00	0.000000e+00
0.0015975     	innerCylinder_slave	0.000000e+00	0.000000e+00	0.000000e+00
0.0015975     	propellerTip	5.105714e+00	1.792025e+02	3.031187e+01
0.00165712    	walls	2.464684e-01	4.997743e+01	1.382096e+01
0.00165712    	innerCylinder	0.000000e+00	0.000000e+00	0.000000e+00
0.00165712    	innerCylinder_slave	0.000000e+00	0.000000e+00	0.000000e+00
0.00165712    	propellerTip	4.968517e+00	1.829813e+02	3.030775e+01
0.00171651    	walls	8.058174e-02	5.044734e+01	1.396950e+01
0.00171651    	innerCylinder	0.000000e+00	0.000000e+00	0.000000e+00
0.00171651    	innerCylinder_slave	0.000000e+00	0.000000e+00	0.000000e+00
0.00171651    	propellerTip	4.871025e+00	1.845622e+02	3.025738e+01
0.00177628    	walls	1.616359e-01	5.091012e+01	1.411666e+01
0.00177628    	innerCylinder	0.000000e+00	0.000000e+00	0.000000e+00
0.00177628    	innerCylinder_slave	0.000000e+00	0.000000e+00	0.000000e+00
0.00177628    	propellerTip	4.803741e+00	1.839861e+02	3.015611e+01
0.00183675    	walls	9.707316e-02	5.136794e+01	1.426397e+01
0.00183675    	innerCylinder	0.000000e+00	0.000000e+00	0.000000e+00
0.00183675    	innerCylinder_slave	0.000000e+00	0.000000e+00	0.000000e+00
0.00183675    	propellerTip	4.760770e+00	1.818681e+02	2.999433e+01
0.00189795    	walls	1.701190e-01	5.182323e+01	1.441067e+01
0.00189795    	innerCylinder	0.000000e+00	0.000000e+00	0.000000e+00
0.00189795    	innerCylinder_slave	0.000000e+00	0.000000e+00	0.000000e+00
0.00189795    	propellerTip	4.737711e+00	1.789043e+02	2.976086e+01
0.00196       	walls	7.296284e-02	5.227667e+01	1.455833e+01
0.00196       	innerCylinder	0.000000e+00	0.000000e+00	0.000000e+00
0.00196       	innerCylinder_slave	0.000000e+00	0.000000e+00	0.000000e+00
0.00196       	propellerTip	4.729030e+00	1.771331e+02	2.944891e+01
0.0020229     	walls	1.211876e-01	5.272958e+01	1.470639e+01
0.0020229     	innerCylinder	0.000000e+00	0.000000e+00	0.000000e+00
0.0020229     	innerCylinder_slave	0.000000e+00	0.000000e+00	0.000000e+00
0.0020229     	propellerTip	4.691720e+00	1.729773e+02	2.905696e+01
0.0020865     	walls	3.839089e-01	5.318142e+01	1.485511e+01
0.0020865     	innerCylinder	0.000000e+00	0.000000e+00	0.000000e+00
0.0020865     	innerCylinder_slave	0.000000e+00	0.000000e+00	0.000000e+00
0.0020865     	propellerTip	4.031919e+00	1.670832e+02	2.859701e+01
0.00215053    	walls	1.086871e-01	5.363006e+01	1.500438e+01
0.00215053    	innerCylinder	0.000000e+00	0.000000e+00	0.000000e+00
0.00215053    	innerCylinder_slave	0.000000e+00	0.000000e+00	0.000000e+00
0.00215053    	propellerTip	3.433867e+00	1.646923e+02	2.809136e+01
0.00221471    	walls	2.810954e-01	5.407353e+01	1.515332e+01
0.00221471    	innerCylinder	0.000000e+00	0.000000e+00	0.000000e+00
0.00221471    	innerCylinder_slave	0.000000e+00	0.000000e+00	0.000000e+00
0.00221471    	propellerTip	2.931947e+00	1.592138e+02	2.756418e+01
0.00227888    	walls	3.578138e-01	5.451256e+01	1.530147e+01
0.00227888    	innerCylinder	0.000000e+00	0.000000e+00	0.000000e+00
0.00227888    	innerCylinder_slave	0.000000e+00	0.000000e+00	0.000000e+00
0.00227888    	propellerTip	2.480235e+00	1.515748e+02	2.704146e+01
0.00234295    	walls	1.433824e-01	5.494738e+01	1.544954e+01
0.00234295    	innerCylinder	0.000000e+00	0.000000e+00	0.000000e+00
0.00234295    	innerCylinder_slave	0.000000e+00	0.000000e+00	0.000000e+00
0.00234295    	propellerTip	2.019467e+00	1.471416e+02	2.654453e+01
0.00240673    	walls	2.407641e-01	5.537820e+01	1.559732e+01
0.00240673    	innerCylinder	0.000000e+00	0.000000e+00	0.000000e+00
0.00240673    	innerCylinder_slave	0.000000e+00	0.000000e+00	0.000000e+00
0.00240673    	propellerTip	1.733622e+00	1.389465e+02	2.610223e+01
0.00246999    	walls	1.668110e-01	5.580338e+01	1.574347e+01
0.00246999    	innerCylinder	0.000000e+00	0.000000e+00	0.000000e+00
0.00246999    	innerCylinder_slave	0.000000e+00	0.000000e+00	0.000000e+00
0.00246999    	propellerTip	1.538650e+00	1.377588e+02	2.574137e+01
0.002533      	walls	4.945266e-01	5.622520e+01	1.588972e+01
0.002533      	innerCylinder	0.000000e+00	0.000000e+00	0.000000e+00
0.002533      	innerCylinder_slave	0.000000e+00	0.000000e+00	0.000000e+00
0.002533      	propellerTip	1.397006e+00	1.406018e+02	2.546082e+01
0.00259588    	walls	1.289927e-02	5.664410e+01	1.603453e+01
0.00259588    	innerCylinder	0.000000e+00	0.000000e+00	0.000000e+00
0.00259588    	innerCylinder_slave	0.000000e+00	0.000000e+00	0.000000e+00
0.00259588    	propellerTip	1.283300e+00	1.525561e+02	2.525138e+01
0.00265844    	walls	3.226362e-01	5.705729e+01	1.617803e+01
0.00265844    	innerCylinder	0.000000e+00	0.000000e+00	0.000000e+00
0.00265844    	innerCylinder_slave	0.000000e+00	0.000000e+00	0.000000e+00
0.00265844    	propellerTip	1.196824e+00	1.527265e+02	2.511143e+01
0.00272041    	walls	3.027581e-01	5.746205e+01	1.631971e+01
0.00272041    	innerCylinder	0.000000e+00	0.000000e+00	0.000000e+00
0.00272041    	innerCylinder_slave	0.000000e+00	0.000000e+00	0.000000e+00
0.00272041    	propellerTip	1.141835e+00	1.455526e+02	2.503085e+01
0.00278179    	walls	3.815071e-01	5.785912e+01	1.645988e+01
0.00278179    	innerCylinder	0.000000e+00	0.000000e+00	0.000000e+00
0.00278179    	innerCylinder_slave	0.000000e+00	0.000000e+00	0.000000e+00
0.00278179    	propellerTip	1.114979e+00	1.462212e+02	2.501073e+01
0.00284266    	walls	2.866496e-01	5.824826e+01	1.659737e+01
0.00284266    	innerCylinder	0.000000e+00	0.000000e+00	0.000000e+00
0.00284266    	innerCylinder_slave	0.000000e+00	0.000000e+00	0.000000e+00
0.00284266    	propellerTip	1.110499e+00	1.498761e+02	2.505495e+01
0.00290313    	walls	1.628113e-01	5.863093e+01	1.673403e+01
0.00290313    	innerCylinder	0.000000e+00	0.000000e+00	0.000000e+00
0.00290313    	innerCylinder_slave	0.000000e+00	0.000000e+00	0.000000e+00
0.00290313    	propellerTip	1.132878e+00	1.483266e+02	2.515283e+01
0.00296339    	walls	3.436886e-01	5.900784e+01	1.686974e+01
0.00296339    	innerCylinder	0.000000e+00	0.000000e+00	0.000000e+00
0.00296339    	innerCylinder_slave	0.000000e+00	0.000000e+00	0.000000e+00
0.00296339    	propellerTip	1.182186e+00	1.565468e+02	2.529035e+01
0.00302347    	walls	1.694311e-01	5.937987e+01	1.700433e+01
0.00302347    	innerCylinder	0.000000e+00	0.000000e+00	0.000000e+00
0.00302347    	innerCylinder_slave	0.000000e+00	0.000000e+00	0.000000e+00
0.00302347    	propellerTip	1.257769e+00	1.641064e+02	2.547501e+01
0.00308331    	walls	2.987679e-01	5.974808e+01	1.713788e+01
0.00308331    	innerCylinder	0.000000e+00	0.000000e+00	0.000000e+00
0.00308331    	innerCylinder_slave	0.000000e+00	0.000000e+00	0.000000e+00
0.00308331    	propellerTip	1.358038e+00	1.688704e+02	2.572602e+01
0.00314282    	walls	5.918165e-01	6.011226e+01	1.727097e+01
0.00314282    	innerCylinder	0.000000e+00	0.000000e+00	0.000000e+00
0.00314282    	innerCylinder_slave	0.000000e+00	0.000000e+00	0.000000e+00
0.00314282    	propellerTip	1.481314e+00	1.698614e+02	2.604816e+01
0.00320189    	walls	2.249743e-01	6.047399e+01	1.740278e+01
0.00320189    	innerCylinder	0.000000e+00	0.000000e+00	0.000000e+00
0.00320189    	innerCylinder_slave	0.000000e+00	0.000000e+00	0.000000e+00
0.00320189    	propellerTip	1.625504e+00	1.673139e+02	2.643848e+01
0.00326045    	walls	2.806353e-01	6.082680e+01	1.753453e+01
0.00326045    	innerCylinder	0.000000e+00	0.000000e+00	0.000000e+00
0.00326045    	innerCylinder_slave	0.000000e+00	0.000000e+00	0.000000e+00
0.00326045    	propellerTip	1.789435e+00	1.634120e+02	2.689330e+01
0.00331843    	walls	2.939606e-01	6.118251e+01	1.766593e+01
0.00331843    	innerCylinder	0.000000e+00	0.000000e+00	0.000000e+00
0.00331843    	innerCylinder_slave	0.000000e+00	0.000000e+00	0.000000e+00
0.00331843    	propellerTip	1.973048e+00	1.600793e+02	2.739375e+01
0.00337584    	walls	2.406273e-01	6.153764e+01	1.779764e+01
0.00337584    	innerCylinder	0.000000e+00	0.000000e+00	0.000000e+00
0.00337584    	innerCylinder_slave	0.000000e+00	0.000000e+00	0.000000e+00
0.00337584    	propellerTip	2.208865e+00	1.577566e+02	2.792794e+01
0.00343273    	walls	1.126665e-01	6.188932e+01	1.792786e+01
0.00343273    	innerCylinder	0.000000e+00	0.000000e+00	0.000000e+00
0.00343273    	innerCylinder_slave	0.000000e+00	0.000000e+00	0.000000e+00
0.00343273    	propellerTip	2.454647e+00	1.557428e+02	2.847739e+01
0.0034895     	walls	3.648518e-02	6.223810e+01	1.805716e+01
0.0034895     	innerCylinder	0.000000e+00	0.000000e+00	0.000000e+00
0.0034895     	innerCylinder_slave	0.000000e+00	0.000000e+00	0.000000e+00
0.0034895     	propellerTip	2.748921e+00	1.542587e+02	2.902018e+01
0.0035465     	walls	3.322978e-01	6.258373e+01	1.818558e+01
0.0035465     	innerCylinder	0.000000e+00	0.000000e+00	0.000000e+00
0.0035465     	innerCylinder_slave	0.000000e+00	0.000000e+00	0.000000e+00
0.0035465     	propellerTip	3.229167e+00	1.544680e+02	2.953820e+01
0.00360343    	walls	3.785781e-01	6.291916e+01	1.831140e+01
0.00360343    	innerCylinder	0.000000e+00	0.000000e+00	0.000000e+00
0.00360343    	innerCylinder_slave	0.000000e+00	0.000000e+00	0.000000e+00
0.00360343    	propellerTip	3.593703e+00	1.570094e+02	3.001133e+01
0.00366044    	walls	3.298583e-01	6.324056e+01	1.843333e+01
0.00366044    	innerCylinder	0.000000e+00	0.000000e+00	0.000000e+00
0.00366044    	innerCylinder_slave	0.000000e+00	0.000000e+00	0.000000e+00
0.00366044    	propellerTip	3.856957e+00	1.599787e+02	3.042426e+01
0.00371769    	walls	1.501581e-01	6.354419e+01	1.855108e+01
0.00371769    	innerCylinder	0.000000e+00	0.000000e+00	0.000000e+00
0.00371769    	innerCylinder_slave	0.000000e+00	0.000000e+00	0.000000e+00
0.00371769    	propellerTip	4.049490e+00	1.626904e+02	3.077229e+01
0.00377555    	walls	2.740065e-01	6.382823e+01	1.866482e+01
0.00377555    	innerCylinder	0.000000e+00	0.000000e+00	0.000000e+00
0.00377555    	innerCylinder_slave	0.000000e+00	0.000000e+00	0.000000e+00
0.00377555    	propellerTip	4.184258e+00	1.650728e+02	3.104990e+01
0.00383426    	walls	3.619012e-01	6.409173e+01	1.877487e+01
0.00383426    	innerCylinder	0.000000e+00	0.000000e+00	0.000000e+00
0.00383426    	innerCylinder_slave	0.000000e+00	0.000000e+00	0.000000e+00
0.00383426    	propellerTip	4.262609e+00	1.675421e+02	3.126349e+01
0.0038939     	walls	3.265037e-01	6.433411e+01	1.888071e+01
0.0038939     	innerCylinder	0.000000e+00	0.000000e+00	0.000000e+00
0.0038939     	innerCylinder_slave	0.000000e+00	0.000000e+00	0.000000e+00
0.0038939     	propellerTip	4.309756e+00	1.707724e+02	3.142279e+01
0.00395459    	walls	3.037857e-01	6.455806e+01	1.898333e+01
0.00395459    	innerCylinder	0.000000e+00	0.000000e+00	0.000000e+00
0.00395459    	innerCylinder_slave	0.000000e+00	0.000000e+00	0.000000e+00
0.00395459    	propellerTip	4.299646e+00	1.737920e+02	3.154067e+01
0.00401601    	walls	2.006044e-01	6.476577e+01	1.908328e+01
0.00401601    	innerCylinder	0.000000e+00	0.000000e+00	0.000000e+00
0.00401601    	innerCylinder_slave	0.000000e+00	0.000000e+00	0.000000e+00
0.00401601    	propellerTip	4.289295e+00	1.767947e+02	3.162770e+01
0.00407854    	walls	2.182321e-01	6.496344e+01	1.918272e+01
0.00407854    	innerCylinder	0.000000e+00	0.000000e+00	0.000000e+00
0.00407854    	innerCylinder_slave	0.000000e+00	0.000000e+00	0.000000e+00
0.00407854    	propellerTip	4.293377e+00	1.777777e+02	3.169710e+01
0.00414185    	walls	4.042598e-01	6.515316e+01	1.928131e+01
0.00414185    	innerCylinder	0.000000e+00	0.000000e+00	0.000000e+00
0.00414185    	innerCylinder_slave	0.000000e+00	0.000000e+00	0.000000e+00
0.00414185    	propellerTip	4.315331e+00	1.743961e+02	3.175999e+01
0.00420617    	walls	2.206952e-01	6.534031e+01	1.938027e+01
0.00420617    	innerCylinder	0.000000e+00	0.000000e+00	0.000000e+00
0.00420617    	innerCylinder_slave	0.000000e+00	0.000000e+00	0.000000e+00
0.00420617    	propellerTip	4.350606e+00	1.661305e+02	3.181848e+01
0.00427217    	walls	6.065770e-01	6.553093e+01	1.948191e+01
0.00427217    	innerCylinder	0.000000e+00	0.000000e+00	0.000000e+00
0.00427217    	innerCylinder_slave	0.000000e+00	0.000000e+00	0.000000e+00
0.00427217    	propellerTip	4.407570e+00	1.554300e+02	3.187436e+01
0.00433939    	walls	4.104494e-01	6.572639e+01	1.958563e+01
0.00433939    	innerCylinder	0.000000e+00	0.000000e+00	0.000000e+00
0.00433939    	innerCylinder_slave	0.000000e+00	0.000000e+00	0.000000e+00
0.00433939    	propellerTip	4.474178e+00	1.461313e+02	3.194211e+01
0.00440746    	walls	2.207960e-01	6.592811e+01	1.969188e+01
0.00440746    	innerCylinder	0.000000e+00	0.000000e+00	0.000000e+00
0.00440746    	innerCylinder_slave	0.000000e+00	0.000000e+00	0.000000e+00
0.00440746    	propellerTip	4.857827e+00	1.508682e+02	3.202065e+01
0.00447614    	walls	6.199954e-01	6.613625e+01	1.980065e+01
0.00447614    	innerCylinder	0.000000e+00	0.000000e+00	0.000000e+00
0.00447614    	innerCylinder_slave	0.000000e+00	0.000000e+00	0.000000e+00
0.00447614    	propellerTip	4.936516e+00	1.534561e+02	3.210198e+01
0.00454527    	walls	1.676060e-01	6.635045e+01	1.991122e+01
0.00454527    	innerCylinder	0.000000e+00	0.000000e+00	0.000000e+00
0.00454527    	innerCylinder_slave	0.000000e+00	0.000000e+00	0.000000e+00
0.00454527    	propellerTip	5.030818e+00	1.528195e+02	3.218459e+01
0.00461472    	walls	3.943870e-01	6.657031e+01	2.002358e+01
0.00461472    	innerCylinder	0.000000e+00	0.000000e+00	0.000000e+00
0.00461472    	innerCylinder_slave	0.000000e+00	0.000000e+00	0.000000e+00
0.00461472    	propellerTip	5.137730e+00	1.509303e+02	3.227270e+01
0.0046844     	walls	6.484533e-02	6.679496e+01	2.013717e+01
0.0046844     	innerCylinder	0.000000e+00	0.000000e+00	0.000000e+00
0.0046844     	innerCylinder_slave	0.000000e+00	0.000000e+00	0.000000e+00
0.0046844     	propellerTip	5.220286e+00	1.484633e+02	3.236499e+01
0.00475439    	walls	2.198831e-01	6.702298e+01	2.025203e+01
0.00475439    	innerCylinder	0.000000e+00	0.000000e+00	0.000000e+00
0.00475439    	innerCylinder_slave	0.000000e+00	0.000000e+00	0.000000e+00
0.00475439    	propellerTip	5.221766e+00	1.462106e+02	3.246132e+01
0.00482479    	walls	2.026436e-01	6.725453e+01	2.036805e+01
0.00482479    	innerCylinder	0.000000e+00	0.000000e+00	0.000000e+00
0.00482479    	innerCylinder_slave	0.000000e+00	0.000000e+00	0.000000e+00
0.00482479    	propellerTip	5.216127e+00	1.440653e+02	3.255651e+01
0.00489548    	walls	2.186872e-01	6.756321e+01	2.048477e+01
0.00489548    	innerCylinder	0.000000e+00	0.000000e+00	0.000000e+00
0.00489548    	innerCylinder_slave	0.000000e+00	0.000000e+00	0.000000e+00
0.00489548    	propellerTip	5.202525e+00	1.427454e+02	3.264607e+01
0.00496581    	walls	1.407767e-01	6.789148e+01	2.060068e+01
0.00496581    	innerCylinder	0.000000e+00	0.000000e+00	0.000000e+00
0.00496581    	innerCylinder_slave	0.000000e+00	0.000000e+00	0.000000e+00
0.00496581    	propellerTip	5.174850e+00	1.418857e+02	3.272853e+01
0.00503585    	walls	3.170864e-01	6.821453e+01	2.071665e+01
0.00503585    	innerCylinder	0.000000e+00	0.000000e+00	0.000000e+00
0.00503585    	innerCylinder_slave	0.000000e+00	0.000000e+00	0.000000e+00
0.00503585    	propellerTip	5.133581e+00	1.411707e+02	3.280402e+01
0.00510574    	walls	2.673587e-01	6.854644e+01	2.083273e+01
0.00510574    	innerCylinder	0.000000e+00	0.000000e+00	0.000000e+00
0.00510574    	innerCylinder_slave	0.000000e+00	0.000000e+00	0.000000e+00
0.00510574    	propellerTip	5.083000e+00	1.407634e+02	3.287179e+01
0.00517554    	walls	3.115653e-01	6.887803e+01	2.094881e+01
0.00517554    	innerCylinder	0.000000e+00	0.000000e+00	0.000000e+00
0.00517554    	innerCylinder_slave	0.000000e+00	0.000000e+00	0.000000e+00
0.00517554    	propellerTip	5.024860e+00	1.408577e+02	3.293802e+01
0.00524534    	walls	4.434176e-01	6.920477e+01	2.106432e+01
0.00524534    	innerCylinder	0.000000e+00	0.000000e+00	0.000000e+00
0.00524534    	innerCylinder_slave	0.000000e+00	0.000000e+00	0.000000e+00
0.00524534    	propellerTip	4.955729e+00	1.415649e+02	3.301385e+01
0.00531519    	walls	5.299949e-01	6.952742e+01	2.117995e+01
0.00531519    	innerCylinder	0.000000e+00	0.000000e+00	0.000000e+00
0.00531519    	innerCylinder_slave	0.000000e+00	0.000000e+00	0.000000e+00
0.00531519    	propellerTip	4.878466e+00	1.427572e+02	3.311437e+01
0.00538515    	walls	4.305270e-01	6.984628e+01	2.129500e+01
0.00538515    	innerCylinder	0.000000e+00	0.000000e+00	0.000000e+00
0.00538515    	innerCylinder_slave	0.000000e+00	0.000000e+00	0.000000e+00
0.00538515    	propellerTip	4.796285e+00	1.441737e+02	3.324811e+01
0.00545525    	walls	3.837749e-01	7.016125e+01	2.140996e+01
0.00545525    	innerCylinder	0.000000e+00	0.000000e+00	0.000000e+00
0.00545525    	innerCylinder_slave	0.000000e+00	0.000000e+00	0.000000e+00
0.00545525    	propellerTip	4.712307e+00	1.456225e+02	3.340551e+01
0.00552552    	walls	3.948483e-01	7.047258e+01	2.152560e+01
0.00552552    	innerCylinder	0.000000e+00	0.000000e+00	0.000000e+00
0.00552552    	innerCylinder_slave	0.000000e+00	0.000000e+00	0.000000e+00
0.00552552    	propellerTip	4.630624e+00	1.468099e+02	3.355607e+01
0.00559601    	walls	5.683801e-01	7.078017e+01	2.164109e+01
0.00559601    	innerCylinder	0.000000e+00	0.000000e+00	0.000000e+00
0.00559601    	innerCylinder_slave	0.000000e+00	0.000000e+00	0.000000e+00
0.00559601    	propellerTip	4.480113e+00	1.476082e+02	3.366960e+01
0.00566675    	walls	2.937464e-01	7.108445e+01	2.175636e+01
0.00566675    	innerCylinder	0.000000e+00	0.000000e+00	0.000000e+00
0.00566675    	innerCylinder_slave	0.000000e+00	0.000000e+00	0.000000e+00
0.00566675    	propellerTip	4.092493e+00	1.546247e+02	3.373474e+01
0.00573781    	walls	7.732231e-02	7.138590e+01	2.187180e+01
0.00573781    	innerCylinder	0.000000e+00	0.000000e+00	0.000000e+00
0.00573781    	innerCylinder_slave	0.000000e+00	0.000000e+00	0.000000e+00
0.00573781    	propellerTip	3.820021e+00	1.629799e+02	3.373739e+01
0.00580919    	walls	6.909939e-02	7.168504e+01	2.198755e+01
0.00580919    	innerCylinder	0.000000e+00	0.000000e+00	0.000000e+00
0.00580919    	innerCylinder_slave	0.000000e+00	0.000000e+00	0.000000e+00
0.00580919    	propellerTip	3.728308e+00	1.644425e+02	3.367646e+01
0.00588089    	walls	5.898856e-01	7.198211e+01	2.210404e+01
0.00588089    	innerCylinder	0.000000e+00	0.000000e+00	0.000000e+00
0.00588089    	innerCylinder_slave	0.000000e+00	0.000000e+00	0.000000e+00
0.00588089    	propellerTip	3.651945e+00	1.600356e+02	3.356567e+01
0.00595288    	walls	3.262071e-01	7.227613e+01	2.222033e+01
0.00595288    	innerCylinder	0.000000e+00	0.000000e+00	0.000000e+00
0.00595288    	innerCylinder_slave	0.000000e+00	0.000000e+00	0.000000e+00
0.00595288    	propellerTip	3.584033e+00	1.583615e+02	3.341693e+01
0.00602441    	walls	3.542805e-01	7.256205e+01	2.233534e+01
0.00602441    	innerCylinder	0.000000e+00	0.000000e+00	0.000000e+00
0.00602441    	innerCylinder_slave	0.000000e+00	0.000000e+00	0.000000e+00
0.00602441    	propellerTip	3.525272e+00	1.614810e+02	3.324515e+01
0.00609522    	walls	8.495980e-02	7.283693e+01	2.244856e+01
0.00609522    	innerCylinder	0.000000e+00	0.000000e+00	0.000000e+00
0.00609522    	innerCylinder_slave	0.000000e+00	0.000000e+00	0.000000e+00
0.00609522    	propellerTip	3.474522e+00	1.592036e+02	3.306565e+01
0.00616539    	walls	2.937410e-01	7.310019e+01	2.256042e+01
0.00616539    	innerCylinder	0.000000e+00	0.000000e+00	0.000000e+00
0.00616539    	innerCylinder_slave	0.000000e+00	0.000000e+00	0.000000e+00
0.00616539    	propellerTip	3.431085e+00	1.560631e+02	3.289102e+01
0.00623515    	walls	5.551546e-01	7.335609e+01	2.267088e+01
0.00623515    	innerCylinder	0.000000e+00	0.000000e+00	0.000000e+00
0.00623515    	innerCylinder_slave	0.000000e+00	0.000000e+00	0.000000e+00
0.00623515    	propellerTip	3.394157e+00	1.519489e+02	3.272708e+01
0.00630478    	walls	2.691815e-01	7.360479e+01	2.277970e+01
0.00630478    	innerCylinder	0.000000e+00	0.000000e+00	0.000000e+00
0.00630478    	innerCylinder_slave	0.000000e+00	0.000000e+00	0.000000e+00
0.00630478    	propellerTip	3.363195e+00	1.543533e+02	3.257453e+01
0.00637452    	walls	7.049347e-01	7.384745e+01	2.288737e+01
0.00637452    	innerCylinder	0.000000e+00	0.000000e+00	0.000000e+00
0.00637452    	innerCylinder_slave	0.000000e+00	0.000000e+00	0.000000e+00
0.00637452    	propellerTip	3.337797e+00	1.550244e+02	3.243383e+01
0.00644451    	walls	5.507323e-01	7.408438e+01	2.299384e+01
0.00644451    	innerCylinder	0.000000e+00	0.000000e+00	0.000000e+00
0.00644451    	innerCylinder_slave	0.000000e+00	0.000000e+00	0.000000e+00
0.00644451    	propellerTip	3.317434e+00	1.533495e+02	3.230408e+01
0.00651479    	walls	4.944888e-01	7.431521e+01	2.309922e+01
0.00651479    	innerCylinder	0.000000e+00	0.000000e+00	0.000000e+00
0.00651479    	innerCylinder_slave	0.000000e+00	0.000000e+00	0.000000e+00
0.00651479    	propellerTip	3.301574e+00	1.504659e+02	3.218868e+01
0.00658532    	walls	4.811925e-01	7.453705e+01	2.320361e+01
0.00658532    	innerCylinder	0.000000e+00	0.000000e+00	0.000000e+00
0.00658532    	innerCylinder_slave	0.000000e+00	0.000000e+00	0.000000e+00
0.00658532    	propellerTip	3.289534e+00	1.469632e+02	3.208979e+01
0.00665607    	walls	2.508723e-01	7.474975e+01	2.330686e+01
0.00665607    	innerCylinder	0.000000e+00	0.000000e+00	0.000000e+00
0.00665607    	innerCylinder_slave	0.000000e+00	0.000000e+00	0.000000e+00
0.00665607    	propellerTip	3.280314e+00	1.436673e+02	3.200627e+01
0.00672704    	walls	1.991334e-01	7.495966e+01	2.340906e+01
0.00672704    	innerCylinder	0.000000e+00	0.000000e+00	0.000000e+00
0.00672704    	innerCylinder_slave	0.000000e+00	0.000000e+00	0.000000e+00
0.00672704    	propellerTip	3.272837e+00	1.409456e+02	3.193852e+01