# Wall shear stress
# Time        	patch         	min           	max           
0.000000e+00	propellerTip	(0.000000e+00 0.000000e+00 0.000000e+00)	(0.000000e+00 0.000000e+00 0.000000e+00)
2.003229e-05	propellerTip	(-1.518537e+05 -2.340132e+05 -1.823221e+05)	(1.585170e+05 2.250336e+05 5.321114e+04)
2.206666e-05	propellerTip	(-2.142743e+04 -6.204507e+03 -1.644208e+04)	(2.232694e+04 2.206159e+04 1.048593e+04)
2.705712e-05	propellerTip	(-5.254163e+03 -1.888335e+03 -3.682124e+03)	(4.905222e+03 6.448020e+03 2.150591e+03)
3.754734e-05	propellerTip	(-1.382868e+03 -5.806343e+02 -1.084678e+03)	(1.199020e+03 1.718792e+03 6.838987e+02)
6.100602e-05	propellerTip	(-3.797295e+02 -1.715003e+02 -3.464958e+02)	(3.649364e+02 3.793706e+02 3.130554e+02)
1.042801e-04	propellerTip	(-1.316802e+02 -6.199241e+01 -1.521478e+02)	(1.237941e+02 9.451682e+01 1.515518e+02)
1.617281e-04	propellerTip	(-6.056340e+01 -3.898381e+01 -8.433960e+01)	(5.349883e+01 3.707821e+01 8.992670e+01)
2.311204e-04	propellerTip	(-3.347327e+01 -3.217560e+01 -6.500850e+01)	(2.737518e+01 2.012759e+01 6.414801e+01)
2.969671e-04	propellerTip	(-2.278752e+01 -2.782391e+01 -4.043608e+01)	(1.736294e+01 1.735252e+01 4.334599e+01)
3.543940e-04	propellerTip	(-1.927679e+01 -2.541572e+01 -3.258554e+01)	(1.129640e+01 1.735262e+01 3.238434e+01)
4.047514e-04	propellerTip	(-1.803219e+01 -2.515438e+01 -2.780352e+01)	(9.251117e+00 1.454782e+01 3.117190e+01)
4.555446e-04	propellerTip	(-1.610113e+01 -2.461926e+01 -2.399283e+01)	(8.086913e+00 1.339133e+01 2.473899e+01)
5.094817e-04	propellerTip	(-1.396103e+01 -2.384561e+01 -2.240760e+01)	(7.660385e+00 1.784673e+01 2.048842e+01)
5.680409e-04	propellerTip	(-1.198579e+01 -2.292304e+01 -2.071098e+01)	(8.518621e+00 1.945784e+01 2.041169e+01)
6.293413e-04	propellerTip	(-1.030964e+01 -2.200133e+01 -2.092097e+01)	(9.377340e+00 1.823251e+01 2.115551e+01)
6.922274e-04	propellerTip	(-1.024412e+01 -2.119915e+01 -2.167621e+01)	(1.020135e+01 1.622171e+01 2.192898e+01)
7.564237e-04	propellerTip	(-1.104667e+01 -2.060032e+01 -2.247304e+01)	(1.101200e+01 1.437612e+01 2.273417e+01)
8.211573e-04	propellerTip	(-1.179341e+01 -2.019568e+01 -2.327267e+01)	(1.177211e+01 1.501734e+01 2.353450e+01)
8.851851e-04	propellerTip	(-1.243608e+01 -1.996188e+01 -2.404730e+01)	(1.243069e+01 1.565851e+01 2.430150e+01)
9.478672e-04	propellerTip	(-1.298208e+01 -1.986493e+01 -2.477867e+01)	(1.299216e+01 1.627816e+01 2.501714e+01)
1.009353e-03	propellerTip	(-1.344576e+01 -1.985547e+01 -2.545637e+01)	(1.347251e+01 1.687485e+01 2.567489e+01)
1.069999e-03	propellerTip	(-1.384831e+01 -1.987599e+01 -2.608013e+01)	(1.388299e+01 1.745685e+01 2.627438e+01)
1.129974e-03	propellerTip	(-1.420699e+01 -1.990029e+01 -2.668808e+01)	(1.424481e+01 1.803078e+01 2.686158e+01)
1.189069e-03	propellerTip	(-1.453393e+01 -1.990752e+01 -2.727232e+01)	(1.456782e+01 1.858970e+01 2.741442e+01)
1.247603e-03	propellerTip	(-1.484156e+01 -1.988697e+01 -2.781582e+01)	(1.486531e+01 1.913629e+01 2.792373e+01)
1.306034e-03	propellerTip	(-1.512935e+01 -1.983615e+01 -2.832177e+01)	(1.513956e+01 1.968598e+01 2.839573e+01)
1.363802e-03	propellerTip	(-1.539207e+01 -1.976628e+01 -2.878671e+01)	(1.538523e+01 2.021230e+01 2.882698e+01)
1.421649e-03	propellerTip	(-1.564253e+01 -1.967464e+01 -2.921833e+01)	(1.561632e+01 2.072797e+01 2.922452e+01)
1.479741e-03	propellerTip	(-1.588791e+01 -1.955992e+01 -2.962013e+01)	(1.584097e+01 2.122630e+01 2.959217e+01)
1.538247e-03	propellerTip	(-1.613273e+01 -1.942542e+01 -2.999544e+01)	(1.606431e+01 2.170357e+01 2.993414e+01)
1.597499e-03	propellerTip	(-1.637784e+01 -1.927165e+01 -3.035027e+01)	(1.628837e+01 2.217065e+01 3.025620e+01)
1.657124e-03	propellerTip	(-1.661885e+01 -1.909683e+01 -3.068407e+01)	(1.651014e+01 2.262068e+01 3.055763e+01)
1.716515e-03	propellerTip	(-1.685359e+01 -1.890788e+01 -3.099266e+01)	(1.672897e+01 2.304090e+01 3.083314e+01)
1.776280e-03	propellerTip	(-1.708509e+01 -1.870743e+01 -3.127312e+01)	(1.694709e+01 2.343091e+01 3.107941e+01)
1.836754e-03	propellerTip	(-1.731200e+01 -1.849147e+01 -3.152573e+01)	(1.716211e+01 2.379408e+01 3.129494e+01)
1.897950e-03	propellerTip	(-1.753579e+01 -1.826208e+01 -3.174478e+01)	(1.737289e+01 2.414052e+01 3.147675e+01)
1.960003e-03	propellerTip	(-1.775791e+01 -1.801923e+01 -3.191961e+01)	(1.758250e+01 2.446842e+01 3.161626e+01)
2.022902e-03	propellerTip	(-1.798100e+01 -1.776180e+01 -3.204471e+01)	(1.780259e+01 2.475941e+01 3.170752e+01)
2.086496e-03	propellerTip	(-1.823663e+01 -1.749257e+01 -3.212046e+01)	(1.805053e+01 2.502734e+01 3.175576e+01)
2.150530e-03	propellerTip	(-1.849624e+01 -1.721760e+01 -3.214170e+01)	(1.830197e+01 2.526651e+01 3.174861e+01)
2.214711e-03	propellerTip	(-1.875977e+01 -1.694206e+01 -3.210361e+01)	(1.856090e+01 2.546728e+01 3.168241e+01)
2.278879e-03	propellerTip	(-1.902806e+01 -1.667401e+01 -3.199964e+01)	(1.882582e+01 2.562741e+01 3.155624e+01)
2.342947e-03	propellerTip	(-1.930251e+01 -1.641720e+01 -3.183076e+01)	(1.909764e+01 2.575001e+01 3.136819e+01)
2.406728e-03	propellerTip	(-1.958268e+01 -1.617222e+01 -3.159829e+01)	(1.937270e+01 2.582019e+01 3.111817e+01)
2.469994e-03	propellerTip	(-1.986249e+01 -1.594585e+01 -3.130738e+01)	(1.965900e+01 2.582667e+01 3.081517e+01)
2.532999e-03	propellerTip	(-2.014741e+01 -1.574355e+01 -3.096847e+01)	(1.995324e+01 2.577319e+01 3.047092e+01)
2.595878e-03	propellerTip	(-2.043166e+01 -1.557114e+01 -3.059095e+01)	(2.024576e+01 2.566630e+01 3.009102e+01)
2.658440e-03	propellerTip	(-2.071690e+01 -1.543129e+01 -3.017728e+01)	(2.053535e+01 2.551757e+01 2.967825e+01)
2.720410e-03	propellerTip	(-2.103849e+01 -1.533379e+01 -2.973468e+01)	(2.087502e+01 2.532343e+01 2.923740e+01)
2.781790e-03	propellerTip	(-2.138000e+01 -1.529101e+01 -2.926600e+01)	(2.121931e+01 2.506705e+01 2.877196e+01)
2.842656e-03	propellerTip	(-2.172161e+01 -1.530161e+01 -2.875322e+01)	(2.156443e+01 2.476162e+01 2.825965e+01)
2.903131e-03	propellerTip	(-2.205647e+01 -1.536812e+01 -2.810060e+01)	(2.191049e+01 2.439518e+01 2.762819e+01)
2.963393e-03	propellerTip	(-2.239627e+01 -1.549652e+01 -2.741434e+01)	(2.224901e+01 2.397488e+01 2.695953e+01)
3.023468e-03	propellerTip	(-2.276846e+01 -1.568357e+01 -2.675946e+01)	(2.263038e+01 2.355510e+01 2.628356e+01)
3.083310e-03	propellerTip	(-2.315061e+01 -1.593358e+01 -2.606753e+01)	(2.302337e+01 2.315912e+01 2.561247e+01)
3.142821e-03	propellerTip	(-2.355745e+01 -1.627097e+01 -2.540430e+01)	(2.344050e+01 2.280207e+01 2.496490e+01)
3.201885e-03	propellerTip	(-2.399231e+01 -1.669516e+01 -2.471703e+01)	(2.388064e+01 2.250210e+01 2.429074e+01)
3.260450e-03	propellerTip	(-2.443339e+01 -1.721222e+01 -2.398925e+01)	(2.433920e+01 2.227964e+01 2.357119e+01)
3.318430e-03	propellerTip	(-2.483131e+01 -1.783379e+01 -2.317298e+01)	(2.474304e+01 2.213782e+01 2.276804e+01)
3.375839e-03	propellerTip	(-2.529751e+01 -1.852673e+01 -2.228939e+01)	(2.520984e+01 2.212091e+01 2.191183e+01)
3.432732e-03	propellerTip	(-2.588956e+01 -1.926252e+01 -2.137094e+01)	(2.579513e+01 2.222349e+01 2.101929e+01)
3.489503e-03	propellerTip	(-2.663675e+01 -2.004598e+01 -2.039326e+01)	(2.652662e+01 2.240368e+01 2.005366e+01)
3.546499e-03	propellerTip	(-2.754862e+01 -2.088420e+01 -1.935146e+01)	(2.741719e+01 2.267132e+01 1.903700e+01)
3.603431e-03	propellerTip	(-2.863724e+01 -2.176156e+01 -1.829779e+01)	(2.847844e+01 2.297651e+01 1.800240e+01)
3.660436e-03	propellerTip	(-2.990314e+01 -2.265744e+01 -1.727031e+01)	(2.970495e+01 2.332273e+01 1.698345e+01)
3.717689e-03	propellerTip	(-3.136850e+01 -2.356041e+01 -1.630827e+01)	(3.112985e+01 2.369926e+01 1.603948e+01)
3.775554e-03	propellerTip	(-3.295864e+01 -2.448396e+01 -1.554140e+01)	(3.266867e+01 2.412713e+01 1.526111e+01)
3.834264e-03	propellerTip	(-3.461252e+01 -2.540295e+01 -1.498401e+01)	(3.428056e+01 2.447056e+01 1.470470e+01)
3.893904e-03	propellerTip	(-3.635032e+01 -2.628308e+01 -1.481059e+01)	(3.596919e+01 2.479540e+01 1.446470e+01)
3.954591e-03	propellerTip	(-3.782690e+01 -2.709092e+01 -1.507232e+01)	(3.742135e+01 2.501263e+01 1.466959e+01)
4.016011e-03	propellerTip	(-3.948466e+01 -2.776399e+01 -1.589301e+01)	(3.898338e+01 2.500574e+01 1.539035e+01)
4.078543e-03	propellerTip	(-4.126049e+01 -2.825792e+01 -1.732864e+01)	(4.076630e+01 2.516764e+01 1.671068e+01)
4.141847e-03	propellerTip	(-4.250216e+01 -2.852805e+01 -1.932627e+01)	(4.205722e+01 2.544667e+01 1.856997e+01)
4.206173e-03	propellerTip	(-4.325836e+01 -2.858974e+01 -2.170036e+01)	(4.286088e+01 2.561966e+01 2.083670e+01)
4.272175e-03	propellerTip	(-4.361275e+01 -2.839756e+01 -2.441424e+01)	(4.330283e+01 2.578713e+01 2.343494e+01)
4.339394e-03	propellerTip	(-4.345711e+01 -2.795449e+01 -2.721077e+01)	(4.326384e+01 2.586760e+01 2.618430e+01)
4.407460e-03	propellerTip	(-4.276952e+01 -2.728150e+01 -2.979447e+01)	(4.272275e+01 2.586061e+01 2.880358e+01)
4.476137e-03	propellerTip	(-4.166975e+01 -2.644462e+01 -3.211214e+01)	(4.176403e+01 2.587850e+01 3.118261e+01)
4.545272e-03	propellerTip	(-4.030266e+01 -2.553990e+01 -3.401619e+01)	(4.051774e+01 2.590247e+01 3.318809e+01)
4.614715e-03	propellerTip	(-3.876679e+01 -2.466251e+01 -3.545510e+01)	(3.909175e+01 2.589378e+01 3.476598e+01)
4.684401e-03	propellerTip	(-3.711968e+01 -2.389894e+01 -3.639151e+01)	(3.758500e+01 2.582516e+01 3.585383e+01)
4.754390e-03	propellerTip	(-3.546982e+01 -2.323835e+01 -3.694895e+01)	(3.599709e+01 2.577941e+01 3.655415e+01)
4.824788e-03	propellerTip	(-3.398949e+01 -2.266827e+01 -3.719596e+01)	(3.457070e+01 2.584021e+01 3.693462e+01)
4.895478e-03	propellerTip	(-3.246973e+01 -2.218159e+01 -3.717018e+01)	(3.319058e+01 2.596276e+01 3.704856e+01)
4.965812e-03	propellerTip	(-3.131480e+01 -2.179336e+01 -3.681559e+01)	(3.190811e+01 2.602407e+01 3.683319e+01)
5.035852e-03	propellerTip	(-3.056032e+01 -2.150609e+01 -3.633284e+01)	(3.121658e+01 2.626000e+01 3.645777e+01)
5.105738e-03	propellerTip	(-2.991831e+01 -2.129536e+01 -3.573667e+01)	(3.057966e+01 2.655669e+01 3.595018e+01)
5.175541e-03	propellerTip	(-2.948622e+01 -2.112120e+01 -3.504338e+01)	(3.013801e+01 2.682386e+01 3.534175e+01)
5.245337e-03	propellerTip	(-2.925072e+01 -2.099813e+01 -3.428265e+01)	(2.988632e+01 2.705354e+01 3.465025e+01)
5.315188e-03	propellerTip	(-2.919716e+01 -2.091549e+01 -3.348402e+01)	(2.980973e+01 2.726716e+01 3.390920e+01)
5.385145e-03	propellerTip	(-2.938764e+01 -2.085942e+01 -3.269652e+01)	(2.988838e+01 2.750917e+01 3.314889e+01)
5.455246e-03	propellerTip	(-2.977828e+01 -2.082023e+01 -3.195377e+01)	(3.015585e+01 2.779340e+01 3.241915e+01)
5.525521e-03	propellerTip	(-3.025572e+01 -2.079779e+01 -3.128077e+01)	(3.054652e+01 2.810646e+01 3.174539e+01)
5.596006e-03	propellerTip	(-3.079269e+01 -2.078966e+01 -3.071244e+01)	(3.099479e+01 2.842336e+01 3.117314e+01)
5.666754e-03	propellerTip	(-3.139009e+01 -2.077687e+01 -3.027646e+01)	(3.151188e+01 2.878436e+01 3.072925e+01)
5.737811e-03	propellerTip	(-3.205016e+01 -2.074855e+01 -2.999341e+01)	(3.209127e+01 2.921007e+01 3.042840e+01)
5.809185e-03	propellerTip	(-3.274844e+01 -2.069429e+01 -2.985791e+01)	(3.282351e+01 2.969243e+01 3.027636e+01)
5.880894e-03	propellerTip	(-3.354692e+01 -2.062887e+01 -2.987941e+01)	(3.364427e+01 3.024225e+01 3.028302e+01)
5.952879e-03	propellerTip	(-3.445472e+01 -2.055602e+01 -3.005535e+01)	(3.450067e+01 3.087379e+01 3.044658e+01)
6.024409e-03	propellerTip	(-3.544807e+01 -2.046664e+01 -3.037673e+01)	(3.538262e+01 3.162433e+01 3.075082e+01)
6.095220e-03	propellerTip	(-3.640510e+01 -2.036068e+01 -3.081734e+01)	(3.625387e+01 3.244743e+01 3.118094e+01)
6.165390e-03	propellerTip	(-3.736883e+01 -2.024864e+01 -3.135018e+01)	(3.712992e+01 3.327324e+01 3.170514e+01)
6.235153e-03	propellerTip	(-3.831501e+01 -2.011964e+01 -3.195624e+01)	(3.800892e+01 3.408834e+01 3.230310e+01)
6.304781e-03	propellerTip	(-3.921875e+01 -1.998452e+01 -3.260740e+01)	(3.886573e+01 3.486661e+01 3.296109e+01)
6.374516e-03	propellerTip	(-4.006037e+01 -1.983800e+01 -3.329107e+01)	(3.967336e+01 3.558831e+01 3.366260e+01)
6.444508e-03	propellerTip	(-4.081005e+01 -1.967708e+01 -3.401357e+01)	(4.040378e+01 3.624391e+01 3.439523e+01)
6.514788e-03	propellerTip	(-4.143631e+01 -1.950381e+01 -3.477817e+01)	(4.102808e+01 3.680551e+01 3.516080e+01)
6.585321e-03	propellerTip	(-4.195360e+01 -1.931532e+01 -3.557884e+01)	(4.155518e+01 3.728551e+01 3.595516e+01)
6.656069e-03	propellerTip	(-4.234790e+01 -1.911090e+01 -3.643318e+01)	(4.196213e+01 3.768154e+01 3.679480e+01)
6.727044e-03	propellerTip	(-4.260811e+01 -1.888778e+01 -3.729223e+01)	(4.224001e+01 3.800455e+01 3.763755e+01)
6.798291e-03	propellerTip	(-4.273129e+01 -1.865348e+01 -3.815414e+01)	(4.239582e+01 3.828686e+01 3.848633e+01)
6.869850e-03	propellerTip	(-4.271739e+01 -1.841944e+01 -3.900158e+01)	(4.242648e+01 3.850877e+01 3.931658e+01)
6.941748e-03	propellerTip	(-4.256757e+01 -1.817293e+01 -3.981592e+01)	(4.233069e+01 3.869330e+01 4.012223e+01)
7.013961e-03	propellerTip	(-4.228902e+01 -1.792293e+01 -4.059072e+01)	(4.210871e+01 3.883108e+01 4.089031e+01)
7.086454e-03	propellerTip	(-4.189401e+01 -1.766218e+01 -4.130628e+01)	(4.177345e+01 3.892856e+01 4.161316e+01)
7.159179e-03	propellerTip	(-4.139662e+01 -1.739409e+01 -4.193668e+01)	(4.134189e+01 3.900342e+01 4.226874e+01)
7.232098e-03	propellerTip	(-4.080312e+01 -1.711934e+01 -4.246358e+01)	(4.081918e+01 3.907471e+01 4.283812e+01)
7.305207e-03	propellerTip	(-4.011937e+01 -1.684871e+01 -4.288592e+01)	(4.020656e+01 3.905733e+01 4.330436e+01)
7.378494e-03	propellerTip	(-3.937073e+01 -1.661310e+01 -4.320833e+01)	(3.951463e+01 3.894291e+01 4.365473e+01)
7.451923e-03	propellerTip	(-3.857600e+01 -1.637375e+01 -4.341941e+01)	(3.877428e+01 3.873798e+01 4.389245e+01)
7.525433e-03	propellerTip	(-3.775168e+01 -1.612381e+01 -4.353071e+01)	(3.800711e+01 3.845281e+01 4.401731e+01)
7.598959e-03	propellerTip	(-3.691797e+01 -1.586138e+01 -4.355838e+01)	(3.722976e+01 3.809739e+01 4.404025e+01)
7.672444e-03	propellerTip	(-3.609639e+01 -1.560683e+01 -4.350895e+01)	(3.646055e+01 3.767833e+01 4.397982e+01)
7.745872e-03	propellerTip	(-3.530445e+01 -1.536492e+01 -4.339857e+01)	(3.571302e+01 3.720094e+01 4.385380e+01)
7.819265e-03	propellerTip	(-3.455635e+01 -1.511624e+01 -4.324223e+01)	(3.500748e+01 3.668721e+01 4.367495e+01)
7.892650e-03	propellerTip	(-3.385955e+01 -1.488293e+01 -4.304777e+01)	(3.434451e+01 3.615834e+01 4.346377e+01)
7.966040e-03	propellerTip	(-3.322009e+01 -1.468577e+01 -4.282930e+01)	(3.372697e+01 3.562724e+01 4.323537e+01)
8.039426e-03	propellerTip	(-3.264445e+01 -1.451107e+01 -4.260422e+01)	(3.315588e+01 3.510005e+01 4.300390e+01)
8.112804e-03	propellerTip	(-3.213248e+01 -1.436538e+01 -4.238506e+01)	(3.263247e+01 3.460134e+01 4.277943e+01)
8.186177e-03	propellerTip	(-3.167682e+01 -1.425106e+01 -4.218208e+01)	(3.215842e+01 3.413931e+01 4.256629e+01)
8.259556e-03	propellerTip	(-3.126335e+01 -1.416244e+01 -4.199973e+01)	(3.172823e+01 3.372033e+01 4.237011e+01)
8.332942e-03	propellerTip	(-3.088356e+01 -1.409952e+01 -4.183927e+01)	(3.132834e+01 3.335768e+01 4.218957e+01)
8.406336e-03	propellerTip	(-3.053459e+01 -1.406049e+01 -4.168535e+01)	(3.095222e+01 3.305047e+01 4.201411e+01)
8.479747e-03	propellerTip	(-3.020189e+01 -1.404390e+01 -4.152836e+01)	(3.059620e+01 3.278321e+01 4.183901e+01)
8.553187e-03	propellerTip	(-2.987582e+01 -1.404402e+01 -4.136812e+01)	(3.025535e+01 3.256328e+01 4.165362e+01)
8.626662e-03	propellerTip	(-2.954704e+01 -1.405505e+01 -4.118871e+01)	(2.992374e+01 3.237541e+01 4.144534e+01)
8.700191e-03	propellerTip	(-2.921140e+01 -1.408747e+01 -4.098777e+01)	(2.959520e+01 3.219623e+01 4.121239e+01)
8.773781e-03	propellerTip	(-2.886627e+01 -1.413394e+01 -4.076124e+01)	(2.926348e+01 3.201665e+01 4.095245e+01)
8.847431e-03	propellerTip	(-2.851002e+01 -1.418053e+01 -4.050336e+01)	(2.892570e+01 3.183451e+01 4.066147e+01)
8.921134e-03	propellerTip	(-2.814082e+01 -1.421956e+01 -4.020987e+01)	(2.858434e+01 3.164215e+01 4.033560e+01)
8.994906e-03	propellerTip	(-2.776254e+01 -1.425597e+01 -3.987535e+01)	(2.824246e+01 3.143667e+01 3.997286e+01)
9.068756e-03	propellerTip	(-2.737989e+01 -1.429137e+01 -3.949471e+01)	(2.790526e+01 3.121697e+01 3.957059e+01)
9.142554e-03	propellerTip	(-2.699796e+01 -1.432794e+01 -3.907273e+01)	(2.757766e+01 3.096726e+01 3.912765e+01)
9.216070e-03	propellerTip	(-2.662544e+01 -1.436798e+01 -3.862078e+01)	(2.726624e+01 3.068429e+01 3.865461e+01)
9.289351e-03	propellerTip	(-2.626964e+01 -1.443074e+01 -3.814353e+01)	(2.697829e+01 3.038182e+01 3.816024e+01)
9.362461e-03	propellerTip	(-2.593736e+01 -1.451182e+01 -3.764807e+01)	(2.671828e+01 3.006002e+01 3.765369e+01)
9.435460e-03	propellerTip	(-2.563344e+01 -1.461578e+01 -3.714501e+01)	(2.648898e+01 2.972178e+01 3.714724e+01)
9.508402e-03	propellerTip	(-2.536111e+01 -1.474421e+01 -3.664729e+01)	(2.628935e+01 2.937045e+01 3.665568e+01)
9.581327e-03	propellerTip	(-2.512054e+01 -1.485090e+01 -3.616802e+01)	(2.611689e+01 2.901036e+01 3.619406e+01)
9.654264e-03	propellerTip	(-2.490755e+01 -1.493750e+01 -3.572019e+01)	(2.596410e+01 2.864579e+01 3.577738e+01)
9.727228e-03	propellerTip	(-2.471441e+01 -1.502165e+01 -3.531587e+01)	(2.582015e+01 2.828154e+01 3.541638e+01)
9.800223e-03	propellerTip	(-2.452866e+01 -1.510347e+01 -3.496322e+01)	(2.567135e+01 2.791482e+01 3.511673e+01)
9.873243e-03	propellerTip	(-2.433841e+01 -1.517687e+01 -3.466553e+01)	(2.550463e+01 2.754398e+01 3.488018e+01)
9.946271e-03	propellerTip	(-2.413047e+01 -1.521445e+01 -3.442342e+01)	(2.530453e+01 2.717107e+01 3.470489e+01)
1.001929e-02	propellerTip	(-2.389098e+01 -1.522533e+01 -3.423414e+01)	(2.505727e+01 2.679217e+01 3.458369e+01)
1.009227e-02	propellerTip	(-2.361041e+01 -1.521368e+01 -3.409204e+01)	(2.475300e+01 2.640913e+01 3.450677e+01)
1.016517e-02	propellerTip	(-2.328292e+01 -1.517864e+01 -3.398823e+01)	(2.438329e+01 2.601614e+01 3.446000e+01)
1.023800e-02	propellerTip	(-2.290652e+01 -1.511607e+01 -3.391121e+01)	(2.394462e+01 2.561089e+01 3.442986e+01)
1.031073e-02	propellerTip	(-2.248181e+01 -1.502123e+01 -3.384947e+01)	(2.343762e+01 2.518951e+01 3.440228e+01)
1.038336e-02	propellerTip	(-2.201174e+01 -1.489634e+01 -3.379168e+01)	(2.287105e+01 2.475698e+01 3.436442e+01)
1.045588e-02	propellerTip	(-2.150141e+01 -1.475924e+01 -3.372789e+01)	(2.225172e+01 2.431371e+01 3.430614e+01)
1.052829e-02	propellerTip	(-2.095446e+01 -1.463984e+01 -3.364786e+01)	(2.158950e+01 2.386273e+01 3.421829e+01)
1.060061e-02	propellerTip	(-2.038180e+01 -1.450982e+01 -3.354625e+01)	(2.090053e+01 2.340514e+01 3.409563e+01)
1.067286e-02	propellerTip	(-1.979413e+01 -1.436154e+01 -3.341686e+01)	(2.019949e+01 2.294057e+01 3.393564e+01)
1.074504e-02	propellerTip	(-1.920107e+01 -1.419495e+01 -3.325678e+01)	(1.949973e+01 2.246978e+01 3.373605e+01)
1.081718e-02	propellerTip	(-1.861524e+01 -1.402681e+01 -3.307010e+01)	(1.881231e+01 2.199796e+01 3.350046e+01)
1.088931e-02	propellerTip	(-1.804588e+01 -1.381855e+01 -3.285818e+01)	(1.815085e+01 2.153165e+01 3.323549e+01)
1.096144e-02	propellerTip	(-1.749986e+01 -1.358639e+01 -3.262584e+01)	(1.752296e+01 2.107667e+01 3.294755e+01)
1.103359e-02	propellerTip	(-1.698234e+01 -1.336236e+01 -3.237889e+01)	(1.693725e+01 2.065134e+01 3.264437e+01)
1.110576e-02	propellerTip	(-1.650080e+01 -1.315131e+01 -3.212257e+01)	(1.639797e+01 2.030362e+01 3.233483e+01)
1.117798e-02	propellerTip	(-1.605973e+01 -1.294381e+01 -3.186368e+01)	(1.590533e+01 1.998168e+01 3.202655e+01)
1.125026e-02	propellerTip	(-1.565819e+01 -1.271561e+01 -3.160641e+01)	(1.546267e+01 1.968084e+01 3.172306e+01)
1.132262e-02	propellerTip	(-1.529624e+01 -1.250381e+01 -3.135419e+01)	(1.507240e+01 1.940368e+01 3.143048e+01)
1.139508e-02	propellerTip	(-1.497336e+01 -1.232228e+01 -3.111216e+01)	(1.473118e+01 1.915369e+01 3.115585e+01)
1.146767e-02	propellerTip	(-1.468335e+01 -1.217002e+01 -3.088754e+01)	(1.443079e+01 1.893368e+01 3.090372e+01)
1.154042e-02	propellerTip	(-1.441926e+01 -1.202866e+01 -3.068479e+01)	(1.416328e+01 1.874563e+01 3.067654e+01)
1.161336e-02	propellerTip	(-1.417681e+01 -1.188946e+01 -3.050388e+01)	(1.392267e+01 1.858715e+01 3.047590e+01)
1.168652e-02	propellerTip	(-1.395521e+01 -1.174758e+01 -3.034573e+01)	(1.370548e+01 1.845874e+01 3.030301e+01)
1.175993e-02	propellerTip	(-1.375279e+01 -1.161073e+01 -3.021152e+01)	(1.350626e+01 1.835567e+01 3.015816e+01)
1.183360e-02	propellerTip	(-1.356387e+01 -1.148052e+01 -3.009617e+01)	(1.332088e+01 1.826777e+01 3.003603e+01)
1.190757e-02	propellerTip	(-1.338525e+01 -1.135593e+01 -2.999857e+01)	(1.314874e+01 1.819142e+01 2.993379e+01)
1.198184e-02	propellerTip	(-1.321586e+01 -1.123783e+01 -2.991711e+01)	(1.298569e+01 1.812374e+01 2.984980e+01)
1.205643e-02	propellerTip	(-1.305364e+01 -1.112509e+01 -2.985046e+01)	(1.283081e+01 1.806196e+01 2.978212e+01)
1.213136e-02	propellerTip	(-1.289826e+01 -1.101610e+01 -2.979631e+01)	(1.268346e+01 1.800682e+01 2.972900e+01)
1.220663e-02	propellerTip	(-1.274978e+01 -1.091072e+01 -2.975406e+01)	(1.254287e+01 1.796126e+01 2.968889e+01)
1.228226e-02	propellerTip	(-1.260972e+01 -1.080912e+01 -2.972392e+01)	(1.241299e+01 1.790732e+01 2.966035e+01)
1.235826e-02	propellerTip	(-1.248948e+01 -1.071068e+01 -2.970500e+01)	(1.230378e+01 1.784324e+01 2.964802e+01)
1.243443e-02	propellerTip	(-1.237550e+01 -1.061488e+01 -2.969389e+01)	(1.220212e+01 1.778166e+01 2.964672e+01)
1.251057e-02	propellerTip	(-1.226509e+01 -1.052168e+01 -2.968589e+01)	(1.210676e+01 1.770053e+01 2.965229e+01)
1.258668e-02	propellerTip	(-1.216095e+01 -1.043280e+01 -2.967256e+01)	(1.201697e+01 1.762231e+01 2.965580e+01)
1.266274e-02	propellerTip	(-1.206397e+01 -1.034657e+01 -2.965452e+01)	(1.193319e+01 1.754905e+01 2.965540e+01)
1.273875e-02	propellerTip	(-1.197452e+01 -1.026371e+01 -2.963136e+01)	(1.185406e+01 1.747688e+01 2.965171e+01)
1.281471e-02	propellerTip	(-1.189121e+01 -1.018414e+01 -2.960465e+01)	(1.178076e+01 1.740430e+01 2.964583e+01)
1.289062e-02	propellerTip	(-1.181336e+01 -1.010792e+01 -2.957557e+01)	(1.171240e+01 1.733066e+01 2.963808e+01)
1.296651e-02	propellerTip	(-1.174074e+01 -1.003492e+01 -2.954505e+01)	(1.164903e+01 1.725900e+01 2.962850e+01)
1.304238e-02	propellerTip	(-1.167288e+01 -9.965325e+00 -2.951236e+01)	(1.159090e+01 1.719361e+01 2.961780e+01)
1.311826e-02	propellerTip	(-1.160835e+01 -9.899159e+00 -2.948043e+01)	(1.153580e+01 1.713385e+01 2.960557e+01)
1.319417e-02	propellerTip	(-1.154602e+01 -9.836583e+00 -2.944724e+01)	(1.148469e+01 1.707781e+01 2.959282e+01)
1.327009e-02	propellerTip	(-1.148753e+01 -9.777605e+00 -2.941370e+01)	(1.143941e+01 1.702654e+01 2.957857e+01)
1.334590e-02	propellerTip	(-1.143579e+01 -9.722007e+00 -2.937891e+01)	(1.139987e+01 1.697960e+01 2.956273e+01)
1.342131e-02	propellerTip	(-1.138365e+01 -9.670306e+00 -2.934209e+01)	(1.135980e+01 1.695238e+01 2.954291e+01)
1.349637e-02	propellerTip	(-1.133410e+01 -9.622405e+00 -2.930175e+01)	(1.132106e+01 1.692317e+01 2.951830e+01)
1.357115e-02	propellerTip	(-1.128719e+01 -9.578324e+00 -2.925713e+01)	(1.128315e+01 1.689128e+01 2.948853e+01)
1.364572e-02	propellerTip	(-1.124231e+01 -9.538554e+00 -2.920801e+01)	(1.124533e+01 1.685687e+01 2.945336e+01)
1.372017e-02	propellerTip	(-1.119842e+01 -9.503173e+00 -2.915468e+01)	(1.120769e+01 1.681867e+01 2.941249e+01)
1.379457e-02	propellerTip	(-1.115472e+01 -9.471303e+00 -2.909769e+01)	(1.116993e+01 1.677655e+01 2.936692e+01)
1.386898e-02	propellerTip	(-1.111050e+01 -9.442855e+00 -2.903747e+01)	(1.113098e+01 1.673039e+01 2.931728e+01)
1.394347e-02	propellerTip	(-1.106620e+01 -9.417514e+00 -2.897521e+01)	(1.109017e+01 1.668099e+01 2.926439e+01)
1.401806e-02	propellerTip	(-1.102119e+01 -9.395000e+00 -2.891164e+01)	(1.104717e+01 1.662929e+01 2.920902e+01)
1.409277e-02	propellerTip	(-1.097510e+01 -9.375085e+00 -2.884776e+01)	(1.100183e+01 1.657700e+01 2.915207e+01)
1.416761e-02	propellerTip	(-1.092787e+01 -9.358345e+00 -2.878366e+01)	(1.095459e+01 1.652473e+01 2.909400e+01)
1.424254e-02	propellerTip	(-1.087959e+01 -9.344425e+00 -2.871971e+01)	(1.090628e+01 1.647135e+01 2.903500e+01)
1.431756e-02	propellerTip	(-1.083104e+01 -9.332932e+00 -2.865620e+01)	(1.085761e+01 1.641689e+01 2.897531e+01)
1.439254e-02	propellerTip	(-1.078246e+01 -9.323418e+00 -2.859332e+01)	(1.080919e+01 1.636450e+01 2.891492e+01)
1.446739e-02	propellerTip	(-1.073488e+01 -9.315680e+00 -2.853099e+01)	(1.076168e+01 1.631294e+01 2.885316e+01)
1.454210e-02	propellerTip	(-1.068914e+01 -9.309322e+00 -2.846862e+01)	(1.071584e+01 1.626195e+01 2.878905e+01)
1.461666e-02	propellerTip	(-1.064572e+01 -9.304434e+00 -2.840551e+01)	(1.067214e+01 1.621165e+01 2.872255e+01)
1.469110e-02	propellerTip	(-1.060491e+01 -9.300668e+00 -2.834099e+01)	(1.063066e+01 1.616135e+01 2.865354e+01)
1.476543e-02	propellerTip	(-1.056694e+01 -9.297874e+00 -2.827457e+01)	(1.059153e+01 1.611133e+01 2.858208e+01)
1.483967e-02	propellerTip	(-1.053187e+01 -9.295738e+00 -2.820609e+01)	(1.055476e+01 1.606071e+01 2.850828e+01)
1.491383e-02	propellerTip	(-1.049965e+01 -9.294287e+00 -2.813566e+01)	(1.052011e+01 1.600893e+01 2.843232e+01)
1.498791e-02	propellerTip	(-1.047012e+01 -9.293349e+00 -2.806368e+01)	(1.048709e+01 1.595573e+01 2.835462e+01)
1.506190e-02	propellerTip	(-1.044271e+01 -9.292681e+00 -2.799070e+01)	(1.045558e+01 1.590214e+01 2.827608e+01)
1.513578e-02	propellerTip	(-1.041698e+01 -9.292256e+00 -2.791779e+01)	(1.042550e+01 1.584784e+01 2.819723e+01)
1.520950e-02	propellerTip	(-1.039211e+01 -9.291832e+00 -2.784558e+01)	(1.039637e+01 1.579162e+01 2.811832e+01)
1.528302e-02	propellerTip	(-1.036778e+01 -9.291257e+00 -2.777462e+01)	(1.036816e+01 1.573368e+01 2.803963e+01)
1.535632e-02	propellerTip	(-1.034397e+01 -9.290398e+00 -2.770457e+01)	(1.034058e+01 1.567391e+01 2.796123e+01)
1.542940e-02	propellerTip	(-1.032073e+01 -9.289206e+00 -2.763557e+01)	(1.031372e+01 1.561430e+01 2.788421e+01)
1.550228e-02	propellerTip	(-1.029795e+01 -9.287612e+00 -2.756775e+01)	(1.028725e+01 1.555302e+01 2.780870e+01)
1.557496e-02	propellerTip	(-1.027544e+01 -9.285593e+00 -2.750037e+01)	(1.026061e+01 1.548851e+01 2.773486e+01)
1.564744e-02	propellerTip	(-1.025315e+01 -9.283040e+00 -2.743438e+01)	(1.023316e+01 1.542120e+01 2.766304e+01)
1.571974e-02	propellerTip	(-1.023086e+01 -9.279929e+00 -2.737025e+01)	(1.020598e+01 1.535554e+01 2.759349e+01)
1.579188e-02	propellerTip	(-1.020842e+01 -9.276112e+00 -2.730865e+01)	(1.017766e+01 1.528902e+01 2.752635e+01)
1.586387e-02	propellerTip	(-1.018561e+01 -9.271565e+00 -2.724964e+01)	(1.014827e+01 1.522361e+01 2.746234e+01)
1.593575e-02	propellerTip	(-1.016234e+01 -9.266129e+00 -2.719323e+01)	(1.011817e+01 1.516003e+01 2.740160e+01)
1.600753e-02	propellerTip	(-1.013866e+01 -9.259693e+00 -2.713947e+01)	(1.008742e+01 1.509843e+01 2.734452e+01)
1.607924e-02	propellerTip	(-1.011471e+01 -9.252361e+00 -2.708837e+01)	(1.005635e+01 1.503926e+01 2.729101e+01)
1.615090e-02	propellerTip	(-1.009044e+01 -9.244052e+00 -2.703999e+01)	(1.002503e+01 1.498321e+01 2.724053e+01)
1.622253e-02	propellerTip	(-1.006574e+01 -9.234641e+00 -2.699418e+01)	(9.993806e+00 1.493028e+01 2.719281e+01)
1.629413e-02	propellerTip	(-1.004108e+01 -9.223934e+00 -2.695084e+01)	(9.963224e+00 1.488350e+01 2.714743e+01)
1.636574e-02	propellerTip	(-1.001683e+01 -9.211948e+00 -2.690983e+01)	(9.933628e+00 1.484026e+01 2.710381e+01)
1.643736e-02	propellerTip	(-9.993326e+00 -9.198750e+00 -2.687075e+01)	(9.905535e+00 1.480018e+01 2.706160e+01)
1.650901e-02	propellerTip	(-9.970853e+00 -9.184295e+00 -2.683329e+01)	(9.879233e+00 1.476295e+01 2.702048e+01)
1.658071e-02	propellerTip	(-9.949546e+00 -9.168694e+00 -2.679727e+01)	(9.854846e+00 1.472802e+01 2.698003e+01)
1.665247e-02	propellerTip	(-9.929132e+00 -9.151905e+00 -2.676239e+01)	(9.832465e+00 1.469433e+01 2.694000e+01)
1.672429e-02	propellerTip	(-9.909834e+00 -9.133952e+00 -2.672814e+01)	(9.812051e+00 1.466091e+01 2.690025e+01)
1.679617e-02	propellerTip	(-9.891954e+00 -9.114775e+00 -2.669431e+01)	(9.793402e+00 1.462734e+01 2.686079e+01)
1.686813e-02	propellerTip	(-9.875414e+00 -9.094374e+00 -2.666095e+01)	(9.776251e+00 1.459339e+01 2.682194e+01)
1.694014e-02	propellerTip	(-9.859867e+00 -9.072696e+00 -2.662805e+01)	(9.760451e+00 1.455885e+01 2.678377e+01)
1.701221e-02	propellerTip	(-9.844968e+00 -9.049913e+00 -2.659585e+01)	(9.745759e+00 1.452393e+01 2.674652e+01)
1.708434e-02	propellerTip	(-9.830396e+00 -9.026276e+00 -2.656431e+01)	(9.731790e+00 1.448856e+01 2.671039e+01)
1.715651e-02	propellerTip	(-9.815879e+00 -9.001878e+00 -2.653344e+01)	(9.718149e+00 1.445292e+01 2.667565e+01)
1.722872e-02	propellerTip	(-9.801111e+00 -8.976457e+00 -2.650318e+01)	(9.704405e+00 1.441682e+01 2.664218e+01)
1.730096e-02	propellerTip	(-9.785599e+00 -8.950275e+00 -2.647376e+01)	(9.690055e+00 1.438074e+01 2.660989e+01)
1.737324e-02	propellerTip	(-9.768931e+00 -8.923600e+00 -2.644579e+01)	(9.674599e+00 1.434579e+01 2.657902e+01)
1.744555e-02	propellerTip	(-9.750715e+00 -8.896389e+00 -2.641984e+01)	(9.657660e+00 1.431290e+01 2.654996e+01)
1.751789e-02	propellerTip	(-9.730936e+00 -8.868797e+00 -2.639625e+01)	(9.639073e+00 1.428290e+01 2.652300e+01)
1.759028e-02	propellerTip	(-9.709820e+00 -8.840899e+00 -2.637482e+01)	(9.618777e+00 1.425589e+01 2.649821e+01)
1.766271e-02	propellerTip	(-9.687563e+00 -8.812951e+00 -2.635528e+01)	(9.596855e+00 1.423173e+01 2.647582e+01)
1.773517e-02	propellerTip	(-9.664433e+00 -8.784729e+00 -2.633715e+01)	(9.573565e+00 1.420995e+01 2.645559e+01)
1.780765e-02	propellerTip	(-9.640734e+00 -8.756058e+00 -2.631940e+01)	(9.549182e+00 1.418994e+01 2.643686e+01)
1.788016e-02	propellerTip	(-9.616806e+00 -8.728074e+00 -2.630191e+01)	(9.524078e+00 1.417200e+01 2.641929e+01)
1.795271e-02	propellerTip	(-9.592913e+00 -8.700276e+00 -2.628442e+01)	(9.498623e+00 1.415556e+01 2.640239e+01)
1.802530e-02	propellerTip	(-9.569285e+00 -8.672614e+00 -2.626667e+01)	(9.473207e+00 1.414030e+01 2.638584e+01)
1.809794e-02	propellerTip	(-9.546108e+00 -8.645074e+00 -2.624843e+01)	(9.448155e+00 1.412596e+01 2.636934e+01)
1.817062e-02	propellerTip	(-9.523509e+00 -8.617597e+00 -2.622950e+01)	(9.423829e+00 1.411210e+01 2.635277e+01)
1.824335e-02	propellerTip	(-9.501712e+00 -8.590344e+00 -2.620974e+01)	(9.400481e+00 1.409857e+01 2.633606e+01)
1.831613e-02	propellerTip	(-9.480884e+00 -8.563549e+00 -2.618920e+01)	(9.378345e+00 1.408527e+01 2.631910e+01)