/*--------------------------------*- C++ -*----------------------------------*\
  =========                 |
  \\      /  F ield         | OpenFOAM: The Open Source CFD Toolbox
   \\    /   O peration     | Website:  https://openfoam.org
    \\  /    A nd           | Version:  13
     \\/     M anipulation  |
\*---------------------------------------------------------------------------*/
FoamFile
{
    format      ascii;
    class       volVectorField;
    location    "0.0999557";
    object      wallShearStress;
}
// * * * * * * * * * * * * * * * * * * * * * * * * * * * * * * * * * * * * * //

dimensions      [0 2 -2 0 0 0 0];

internalField   uniform (0 0 0);

boundaryField
{
    walls
    {
        type            calculated;
        value           uniform (0 0 0);
    }
    inlet
    {
        type            calculated;
        value           uniform (0 0 0);
    }
    outlet
    {
        type            calculated;
        value           uniform (0 0 0);
    }
    innerCylinder
    {
        type            calculated;
        value           uniform (0 0 0);
    }
    innerCylinder_slave
    {
        type            calculated;
        value           uniform (0 0 0);
    }
    propellerTip
    {
        type            calculated;
        value           nonuniform List<vector> 
9073
(
(-0.0256486 -0.159633 -1.03233)
(-0.241532 0.603546 -1.85492)
(-0.0482121 0.20498 0.0849196)
(0.064621 0.270162 -0.0898346)
(0.240939 0.624553 1.91254)
(-0.397955 1.50832 -2.05814)
(-0.388132 0.380586 0.76249)
(0.107655 0.0377734 -0.11984)
(-0.0495189 -0.0879678 -0.596784)
(0.0428824 -0.0894166 0.613322)
(0.1027 0.143114 -0.308132)
(0.390857 1.52714 2.07344)
(0.171621 0.111356 -0.474313)
(-0.0244109 0.919584 -2.09234)
(0.361006 0.764018 -2.02015)
(0.0265761 0.930118 2.08236)
(-0.257048 1.20525 -1.82427)
(-0.373086 1.7188 -1.99177)
(0.207088 1.32267 2.6205)
(-0.183065 1.316 -2.60366)
(-0.277238 4.21737 13.6586)
(0.0615064 0.0769623 -0.0944093)
(-1.23934 2.47424 8.93764)
(-0.59068 1.62719 3.87853)
(-0.74214 2.02532 5.32189)
(-1.27782 2.53235 8.8329)
(-1.23595 2.68008 7.21567)
(-0.721017 2.08932 5.91006)
(-0.673975 1.68815 4.14084)
(-0.826386 1.52698 3.54227)
(-0.734329 1.40176 3.20253)
(-0.391462 -0.004616 0.212429)
(-0.0608402 0.268644 -0.114)
(-0.0679693 -0.0234491 -0.356541)
(0.228657 0.0509014 0.721183)
(-0.0617697 0.075816 0.0942183)
(-0.102022 0.209533 -0.0527807)
(-0.138755 0.220814 0.0811573)
(0.0217539 4.64541 -14.2817)
(-0.519372 -5.61003 -13.3534)
(-0.5862 0.880726 -6.23129)
(0.259186 3.19646 -10.3548)
(-0.800247 -2.01239 -13.271)
(0.26222 4.02329 -13.0944)
(-0.0267305 -0.0435668 -0.394082)
(0.390118 -0.0045187 -0.212081)
(0.677455 1.636 -4.11427)
(0.829122 1.54869 -3.55957)
(0.480668 0.848251 -1.86341)
(0.764472 1.44218 -3.29866)
(1.1966 2.71015 -8.46052)
(1.22922 2.69473 -7.38086)
(0.556626 1.62195 -3.83109)
(0.705644 2.05168 -5.42377)
(0.665679 2.04886 -5.97872)
(0.765358 2.21627 -6.09845)
(1.11612 2.60337 -8.17488)
(-0.134273 4.77958 14.4185)
(1.95919 -6.52277 14.6122)
(0.529351 0.8706 6.1574)
(-0.120281 3.22311 10.5893)
(0.989323 -4.72129 15.6105)
(0.104552 0.062431 -0.190577)
(0.0210525 0.159976 -0.10143)
(0.0474 0.235253 0.146758)
(0.152364 0.29664 0.0566893)
(0.108394 0.214236 0.0551254)
(0.141739 0.22485 -0.088892)
(-1.02691 2.43874 5.55504)
(-1.16319 2.73306 6.82948)
(-1.08971 2.45503 5.61453)
(-1.15515 2.21655 4.67725)
(-0.868676 1.12966 1.57085)
(-0.876672 1.14141 1.51322)
(-0.501278 0.19407 0.483842)
(-0.0171078 -0.0131329 0.0241751)
(0.0436832 -0.0187132 0.322381)
(-0.351117 -0.013212 0.208196)
(-0.272284 0.135655 -0.172674)
(-0.0235527 -0.0129503 -0.0091116)
(-0.360706 -0.0130013 0.159844)
(-0.0723019 -0.0150381 -0.289828)
(0.500796 0.194003 -0.486541)
(0.0169133 -0.0131872 -0.0246215)
(0.349947 -0.0131564 -0.207919)
(-0.0449989 -0.0186991 -0.324767)
(0.873686 1.11945 -1.51171)
(0.804194 1.25784 -2.19489)
(1.10204 2.43439 -5.61626)
(1.15796 2.24025 -4.69597)
(1.02398 2.45997 -5.533)
(1.19474 2.69638 -6.91667)
(-0.506654 -0.821376 2.36022)
(0.224426 0.0874577 -0.291718)
(-1.10313 2.15862 4.38661)
(0.0259451 -0.0433075 0.391367)
(-0.399416 -0.00394246 0.163942)
(-0.0866847 0.201651 -0.0253135)
(-0.0176112 0.157345 0.0812954)
(0.442099 -0.839379 -2.51704)
(0.28164 -1.10516 -1.89544)
(0.775596 1.25239 -2.21289)
(0.958226 1.80235 -3.2245)
(1.11923 2.18649 -4.45502)
(-0.426645 -1.27802 2.14897)
(0.537362 -1.28635 5.85065)
(0.655173 -1.25736 5.33275)
(-0.413219 -8.33959 20.1536)
(-0.454958 0.730773 10.5312)
(0.628103 -0.421775 6.10464)
(3.12028 -2.15653 3.35258)
(2.69202 -1.98933 2.80558)
(-0.200706 0.847341 -1.40507)
(-0.194658 0.578693 -1.30772)
(0.965269 3.01804 -9.81309)
(1.84041 3.52935 -10.5754)
(0.180808 2.68909 -12.8349)
(0.331501 2.38214 -12.7462)
(-0.332236 2.42577 12.6891)
(-0.973005 3.01076 9.80592)
(-1.8664 3.57444 10.8117)
(-0.273639 2.62862 12.3833)
(-0.530498 2.50572 11.926)
(-0.856465 2.66151 9.69183)
(-1.23696 2.656 9.16135)
(-0.999054 2.84592 10.1646)
(0.0641511 0.752925 1.51172)
(0.368856 0.738054 1.28484)
(-0.496009 1.21587 1.53921)
(-0.537187 -1.28887 -5.83152)
(-0.655069 -1.2588 -5.3158)
(0.435898 -8.34991 -20.1697)
(0.454733 0.719355 -10.5273)
(-0.629965 -0.406437 -6.0851)
(-3.12471 -2.1547 -3.33309)
(-2.69577 -1.98646 -2.78949)
(-1.22544 -5.5915 -12.6425)
(-0.579498 -6.13738 -14.0501)
(-5.55744 -1.12262 2.01751)
(1.22258 -5.57738 12.6415)
(0.579699 -6.1271 14.0482)
(5.56021 -1.12057 -2.00569)
(0.635399 1.26508 -1.68298)
(0.528964 2.49763 -11.9216)
(0.83524 2.74153 -9.94941)
(1.21229 2.68516 -9.17102)
(0.981421 2.87637 -10.303)
(0.0666842 -0.0237403 0.354361)
(0.0787597 0.261902 0.122485)
(0.397902 -0.00385787 -0.163524)
(0.089921 0.193061 0.0252964)
(-0.555325 -8.73419 22.6244)
(0.870589 4.18535 10.2418)
(1.27792 -2.85596 22.9348)
(-1.05285 2.04943 -13.3423)
(2.71741 3.90655 -11.8216)
(-0.824234 2.22605 5.46584)
(-0.58688 1.974 4.98868)
(-0.638611 1.72831 4.84173)
(-1.37673 2.85007 8.07641)
(-0.865848 3.42752 6.80719)
(-1.07251 3.51601 7.2255)
(-0.582602 1.25354 3.36545)
(-0.62181 1.28871 3.29967)
(-1.12282 2.37028 3.66711)
(-0.734031 1.41297 2.92961)
(-0.864253 2.13951 3.3885)
(-1.25502 2.53267 4.73369)
(-0.728957 1.4484 3.0495)
(-0.945402 1.68976 2.142)
(1.50029 0.341979 0.524254)
(-1.11713 2.37582 2.71986)
(-0.857175 1.67515 2.19704)
(-1.54951 1.28316 1.36843)
(1.22408 0.414924 0.531657)
(1.41493 0.33025 0.511922)
(-1.5821 1.25109 1.31439)
(-1.71941 1.13014 1.24685)
(-1.54037 0.632135 0.970824)
(-0.660211 0.192963 0.567213)
(-1.74524 1.073 1.16867)
(-1.59606 0.956406 1.12249)
(-0.561864 -0.375252 -0.0477928)
(-0.733726 -0.256747 -0.0131698)
(-0.472453 -0.363495 0.0913786)
(-0.436004 -0.254576 0.127901)
(-1.25783 0.516256 0.783796)
(-0.687564 0.292413 0.714831)
(-0.176461 0.00974451 -0.260403)
(0.156497 0.445824 -0.354551)
(0.930935 1.99779 13.5977)
(-2.73079 3.89629 11.7576)
(-0.711459 2.95286 6.89633)
(-0.439497 1.30562 5.18509)
(-0.470538 1.33915 4.65981)
(-0.56871 2.65914 6.50298)
(-1.06698 2.64408 8.8182)
(-0.0387361 1.44449 6.37859)
(-0.158388 0.48714 -0.0467508)
(-0.163468 -0.120341 -1.12698)
(-0.737907 0.411647 -0.205959)
(-0.0993274 0.291112 -1.31598)
(-0.110661 1.30584 -1.91376)
(-0.157057 0.326205 -1.20549)
(-0.114912 -0.266457 -0.885459)
(-0.23357 0.577404 -0.957053)
(0.263388 -1.32887 -2.32021)
(0.582982 -1.45289 -2.21218)
(-0.66613 -4.55459 -14.698)
(-0.901996 -0.68094 -5.626)
(-0.723712 -3.44562 -13.2464)
(0.602974 -8.75671 -22.6422)
(-0.871902 4.18963 -10.2401)
(-1.26222 -3.06068 -23.1088)
(-0.723127 -2.5678 -12.9055)
(0.0119798 0.00648313 -0.465995)
(0.211898 0.39496 -0.389216)
(0.55727 -0.388053 0.0578455)
(0.736312 -0.247381 0.0146184)
(0.485044 -0.370225 -0.0728024)
(1.23537 0.519948 -0.73513)
(0.676791 0.297759 -0.713646)
(1.55739 1.30671 -1.35692)
(-1.22784 0.424 -0.541851)
(-1.39068 0.359931 -0.511679)
(1.57595 1.29308 -1.30081)
(1.71575 1.13234 -1.2374)
(1.56155 0.623527 -0.910234)
(1.78072 1.10089 -1.21397)
(1.30753 0.835723 -0.986276)
(0.848556 1.69609 -2.09783)
(-1.90792 0.133906 -0.217372)
(-1.43716 0.287251 -0.529631)
(1.15109 2.41626 -2.7581)
(0.71299 1.74257 -2.25332)
(0.63178 1.39091 -3.48641)
(0.642881 1.39033 -3.42281)
(1.07658 2.32964 -3.65099)
(0.730883 1.38473 -2.88366)
(0.797842 2.21565 -3.69548)
(1.33748 2.58531 -4.7966)
(0.811668 1.4762 -3.21471)
(1.2823 2.8454 -8.31401)
(0.657955 1.99948 -4.86518)
(0.528732 1.80584 -4.54332)
(0.990307 5.05791 -7.98453)
(0.717874 -2.55674 12.8797)
(0.847861 -5.28969 14.3997)
(1.05255 -0.951084 6.8491)
(1.04409 -3.31144 13.2791)
(0.165696 0.467704 0.0459626)
(0.174808 -0.113801 1.14767)
(0.735962 0.413125 0.205506)
(0.1757 0.171589 1.38231)
(0.133682 -0.263859 0.860974)
(0.277311 0.620955 0.998853)
(0.70033 2.97441 -6.97061)
(0.455196 1.71203 -5.72678)
(0.498315 1.34357 -4.61857)
(0.541125 2.65806 -6.50311)
(1.07055 2.70543 -8.75673)
(0.181537 1.48618 -6.44695)
(-0.245793 3.90355 10.8531)
(-0.615896 2.94497 13.2672)
(0.597196 1.37174 -2.30525)
(0.747678 2.43188 -8.49662)
(0.540024 2.4438 -11.4446)
(0.371944 2.52523 -12.3036)
(-0.562586 2.46405 11.4627)
(-0.368628 2.5162 12.3898)
(-0.986453 1.79245 5.82404)
(-0.652045 2.41594 10.6773)
(-0.545912 1.16768 1.92223)
(0.247136 3.944 -10.8822)
(0.619959 2.94581 -13.2677)
(-1.96713 1.48836 -5.98568)
(1.28479 2.50185 -11.0983)
(1.96785 1.48835 5.99277)
(-1.27984 2.50698 11.0992)
(0.540762 1.18402 -1.93422)
(0.988831 1.78471 -5.79766)
(0.639974 2.41414 -10.6758)
(-0.59275 1.33119 2.2338)
(-0.421005 1.67273 -3.18761)
(0.0233112 -0.012892 0.00869161)
(0.0706317 -0.0149652 0.287747)
(0.359331 -0.0129448 -0.15946)
(0.273004 0.141396 0.17475)
(-0.837881 2.67968 9.68645)
(-0.437776 2.17975 8.13821)
(0.401516 1.69282 3.25677)
(-0.462107 1.17196 1.97258)
(-0.207123 0.100252 3.85742)
(0.429979 0.889297 3.18791)
(0.463283 0.867879 3.07353)
(0.230145 0.0621058 -0.18638)
(-0.268471 0.409863 0.462475)
(-0.767515 2.21007 7.96949)
(0.0454177 0.0385605 0.139062)
(0.204478 0.364263 -0.408241)
(0.118553 0.498483 -0.501272)
(-0.30287 0.0242427 -0.276648)
(-0.041579 0.0279342 -0.0385519)
(-0.11327 0.0241038 -0.383601)
(-0.238047 0.0274146 0.0549113)
(-0.0529216 -0.149086 -2.02432)
(0.453688 1.1792 -1.97704)
(0.181599 0.0542146 -3.82019)
(-0.454501 0.904251 -3.16261)
(-0.490922 0.907586 -3.11021)
(-0.286506 1.34599 -2.76851)
(0.963496 2.75902 -9.92935)
(0.68382 2.81962 -9.18862)
(0.775573 2.58055 -9.44929)
(0.627519 2.17453 -8.38425)
(0.279293 0.407279 -0.470061)
(-0.913878 2.78393 9.95863)
(-0.663231 2.74665 8.81966)
(-0.119765 0.500259 0.50815)
(-0.2052 0.358025 0.414334)
(0.302381 0.0242066 0.277267)
(0.0411902 0.0279451 0.0390754)
(0.237613 0.0273758 -0.0543279)
(0.112879 0.0241166 0.384169)
(0.0911109 -0.133786 2.07187)
(0.696374 2.07411 -7.69149)
(-0.270139 3.22746 10.6105)
(-0.355304 1.49753 6.51837)
(-1.45584 -5.73701 20.3299)
(-1.36392 1.55185 8.21584)
(0.392571 0.675295 8.28062)
(0.926614 2.31397 -8.21168)
(0.546441 2.53762 -7.49507)
(-1.01788 2.232 -11.0645)
(-1.05867 2.45107 -10.0339)
(1.03754 2.26875 11.0419)
(1.07987 2.45988 9.96074)
(-0.330524 2.63252 6.36974)
(-0.854654 2.29442 7.07758)
(-0.412411 1.0227 5.21802)
(-0.70957 1.7362 9.64121)
(-0.847197 2.36024 8.26095)
(-0.522194 2.3128 7.05907)
(-0.518387 1.14533 1.53386)
(0.758148 1.17796 1.8071)
(0.268158 3.22018 -10.6025)
(0.39436 1.46164 -6.69986)
(1.47501 -5.74536 -20.3318)
(1.36723 1.57295 -8.19181)
(0.882815 2.34957 -10.0946)
(0.379692 1.03858 -10.3706)
(-0.880692 2.35272 10.091)
(-0.388385 1.02648 10.361)
(0.508477 1.09186 -1.57014)
(-0.666449 0.342251 -0.16975)
(-0.750609 1.15219 -1.65791)
(0.337677 2.6105 -6.32497)
(0.846548 2.294 -7.07062)
(0.310157 1.05886 -5.29263)
(0.583592 1.71223 -9.13941)
(-0.389793 0.828264 -8.17621)
(-0.255678 1.83134 7.60483)
(-0.414624 2.15066 7.92658)
(-0.289556 4.26766 11.5262)
(-0.175311 2.52118 19.0678)
(-0.549787 3.50461 10.4862)
(0.0349454 4.08996 10.7823)
(-0.379202 -5.10914 21.2306)
(-0.42345 2.75081 7.36621)
(0.879255 0.911398 20.7527)
(1.31189 -4.38131 13.0931)
(0.304069 -4.45434 12.8769)
(1.18047 -5.13105 13.6861)
(0.80304 -4.84072 13.51)
(-0.566278 1.15137 1.3352)
(-0.354395 0.176994 1.72485)
(-0.447636 -0.617553 2.46581)
(-0.464533 -0.100714 0.172893)
(0.471591 -0.417738 0.055897)
(0.352586 -0.269708 -0.0329001)
(0.195462 -0.391571 0.0139993)
(-0.032978 -0.0431271 -0.300187)
(0.106915 -0.348591 -0.0456642)
(2.90796 4.01479 -7.85996)
(-4.02027 1.55147 -12.6877)
(-1.1444 1.95802 -11.2222)
(-0.858879 2.36735 -9.86179)
(-1.3031 2.59037 8.63688)
(-0.97323 2.42801 4.96203)
(-0.574408 1.48399 3.95901)
(-0.506102 1.69835 4.04208)
(-0.602711 1.89427 4.90651)
(-1.34047 2.55196 8.61493)
(-1.19733 3.10898 8.19873)
(-0.819945 2.29825 4.71335)
(-0.653855 1.62623 3.99987)
(-0.958555 2.87795 5.4326)
(-0.894908 1.95208 3.91459)
(-0.824649 1.45771 3.69258)
(-0.744332 1.47655 2.69777)
(-0.485372 0.879099 1.85731)
(-0.815019 1.77814 3.44647)
(-0.692238 1.39585 3.09951)
(-0.877421 1.89086 3.62676)
(1.55822 0.266733 0.472268)
(1.40528 0.35665 0.643734)
(1.65653 0.197132 0.340331)
(1.73535 0.608921 0.722927)
(1.82038 0.227872 0.264589)
(-1.3793 1.33862 1.68052)
(1.31805 0.374595 0.636482)
(-1.14666 1.19626 1.032)
(-1.37181 1.32817 1.58369)
(0.279938 0.541783 0.651451)
(-1.19127 1.13087 1.03094)
(-1.4479 1.07486 1.04005)
(-0.354149 0.0125512 0.335492)
(-0.423476 -0.22516 0.711918)
(-0.348612 -0.00377988 0.314062)
(-0.781832 -0.212166 -0.00637385)
(0.0669667 0.510498 0.118091)
(-0.482625 0.00505347 0.650333)
(-0.123348 0.245319 -0.0497482)
(-0.172038 0.0349434 -0.239468)
(0.118922 0.267779 -0.385609)
(0.152927 0.358822 -0.35911)
(-0.119048 0.253455 -0.0469845)
(-0.114526 -0.00857867 -0.323187)
(-0.122218 0.000511909 -0.344864)
(-2.9862 4.22803 8.09511)
(4.00507 1.45917 12.7005)
(1.17019 1.94875 11.3005)
(0.862967 2.42503 9.85014)
(-0.555969 1.61745 5.57524)
(0.106509 0.512066 1.31551)
(-1.00856 2.50155 7.42027)
(-0.194712 0.615999 2.63592)
(0.256446 0.384521 1.23011)
(-0.622354 3.41386 6.08021)
(-0.477886 -0.403269 -0.056322)
(-0.323573 -0.263286 0.0251125)
(-0.181604 -0.382759 -0.0238353)
(0.0313553 -0.0319499 0.29988)
(-0.0916615 -0.339345 0.0431281)
(-0.46323 -0.35412 -0.0835697)
(-0.211287 -0.343653 -0.0320896)
(-0.00563879 -0.0681055 0.205238)
(-0.131345 -0.313441 0.0134443)
(-0.119264 0.0545118 0.156452)
(-0.159537 0.245562 -0.0125161)
(-0.0666221 0.159676 0.270118)
(0.0874681 0.827431 -0.729394)
(-0.0482518 0.540426 -2.72013)
(0.558318 1.18171 -1.37058)
(0.344119 0.0942253 -1.79939)
(0.458897 -0.651941 -2.66517)
(-0.499315 -4.85316 -14.5284)
(0.823464 2.81339 -8.92588)
(0.494137 2.57054 -10.9235)
(0.705526 3.09156 -10.4832)
(0.340245 0.999337 -4.13673)
(0.224462 2.53358 -10.305)
(-1.8082 -3.07185 -11.0468)
(-0.414864 -2.27938 -14.2155)
(0.349757 -5.71518 -14.2561)
(0.381864 -5.70701 -13.7441)
(-0.594363 -4.40118 -12.4521)
(-1.21327 -4.99213 -11.7389)
(-1.10967 -6.55383 -12.3965)
(0.298074 3.32609 -9.37472)
(-1.61199 -0.756753 -6.0122)
(-1.68812 -7.20035 -16.7415)
(-1.23468 -0.560841 -15.3203)
(0.460234 2.73552 -9.90494)
(-1.82102 -5.37885 -17.3403)
(-1.52964 -3.2175 -15.9609)
(0.263464 1.78858 -7.70845)
(0.381046 2.13017 -7.98516)
(0.409747 4.19438 -11.3148)
(0.571958 3.19701 -10.1555)
(0.254581 2.42181 -18.9637)
(-0.616309 -5.44132 -13.9207)
(-0.232497 -4.12603 -14.9087)
(-0.657281 -3.92169 -13.677)
(-0.941556 -4.0582 -12.892)
(-0.0588475 4.02018 -10.6786)
(0.418971 -5.12629 -21.2243)
(0.429575 2.75225 -7.35174)
(-0.906408 0.803768 -20.7366)
(2.51937 1.41284 -10.7313)
(0.0474169 0.121377 -0.446392)
(0.367651 0.34925 -0.756601)
(0.200361 0.286186 -0.377371)
(0.718996 0.669975 -0.734363)
(0.694985 0.373299 -0.852733)
(0.412096 0.328292 -0.793271)
(0.473007 0.125831 -0.80625)
(-0.0106035 -0.0407354 -0.424284)
(-0.168909 -0.0107218 -0.43361)
(0.353205 0.0124483 -0.336403)
(0.417902 -0.221548 -0.723105)
(0.347854 -0.00382253 -0.314564)
(0.781524 -0.209242 0.00828493)
(0.43774 -0.251243 -0.126387)
(-0.0655903 0.457093 -0.101954)
(0.481138 0.0114507 -0.661332)
(1.37864 1.33111 -1.68446)
(-1.28791 0.397204 -0.642682)
(1.13338 1.15953 -1.02944)
(1.37105 1.31936 -1.57904)
(-0.304511 0.55716 -0.661599)
(1.17457 1.07874 -1.04394)
(1.44133 1.04439 -1.05379)
(-1.52421 0.249201 -0.438785)
(-1.34747 0.359778 -0.657818)
(0.595858 1.13524 -2.067)
(0.738883 1.49892 -2.70698)
(-1.82696 0.620478 -0.693424)
(-1.81821 0.200496 -0.241298)
(0.879256 2.19975 -4.68483)
(0.717133 1.61141 -4.04204)
(0.893885 2.00477 -3.95933)
(0.841827 1.52924 -3.74265)
(0.824053 1.56681 -2.81745)
(0.651388 1.19475 -2.49967)
(0.733675 1.50105 -2.68092)
(0.847276 1.74979 -3.42499)
(0.73328 1.46181 -3.2287)
(0.847163 1.82873 -3.60605)
(1.326 2.6969 -8.39328)
(1.13066 2.95792 -7.88797)
(0.924396 2.42977 -4.94421)
(0.546128 1.51725 -3.89865)
(0.472851 1.67394 -3.97361)
(0.859105 2.11498 -4.8046)
(0.746129 2.02502 -5.23222)
(1.23808 2.86327 -8.68643)
(-2.5152 1.39215 10.6976)
(0.121864 -4.47309 13.677)
(-0.786415 2.71043 8.81262)
(-0.460014 2.38269 10.3986)
(-0.582277 3.10115 10.515)
(1.45633 -2.9075 11.5185)
(0.208804 -2.28502 14.2811)
(0.168968 -2.81242 10.6384)
(-0.179732 -6.20534 14.7141)
(0.15404 -5.21125 12.3675)
(-0.587198 1.69578 5.72567)
(-0.033371 2.64263 10.3078)
(0.896013 -5.99169 12.9394)
(1.82178 -8.44593 11.4297)
(-0.350871 3.45337 9.72586)
(1.99792 -0.563125 6.92055)
(1.96017 -1.0751 6.66108)
(1.68861 -7.22601 16.1213)
(1.0307 -0.285651 14.7191)
(-0.372601 2.72612 9.78336)
(1.29434 -5.73611 18.7107)
(0.668529 -2.90774 15.9654)
(2.06884 -3.17551 13.5231)
(0.185443 0.69471 0.0754142)
(-0.0637958 0.321132 0.30288)
(-0.41389 0.775384 0.768392)
(-0.17528 1.03327 1.03839)
(0.0215455 0.20107 0.20083)
(0.0502974 0.252848 0.175995)
(-0.102389 0.589602 0.586962)
(0.146494 0.367433 0.162982)
(0.183746 0.327743 -0.0539427)
(0.0127675 0.337044 0.180991)
(0.459427 -0.361859 0.0880733)
(0.217896 -0.350193 0.0242997)
(0.200775 0.534508 0.0676898)
(0.00830586 -0.0827144 -0.203125)
(0.143623 -0.318814 -0.0142368)
(0.115524 0.054956 -0.147847)
(0.15654 0.247947 0.00517892)
(-0.0839588 0.820143 0.764598)
(0.0509188 0.577891 2.69709)
(0.341281 0.0615447 1.20477)
(0.376538 0.0387459 0.970141)
(0.0948813 1.31042 1.92509)
(0.166291 0.338465 1.22635)
(-0.220726 -1.19475 2.31533)
(-0.556701 -1.47596 2.17623)
(0.55451 1.61575 -5.56697)
(-0.279875 0.282732 -0.55545)
(-0.361854 0.253411 -0.531182)
(0.936604 2.28158 -6.56682)
(-0.228054 0.244652 -1.51348)
(0.177529 0.623886 -2.61082)
(-0.413294 0.453229 -1.52433)
(0.447679 3.72074 -5.60256)
(-1.22864 2.70434 6.66707)
(-1.11418 2.63365 6.55966)
(-1.04011 2.20232 4.85443)
(-1.07359 2.1872 4.74828)
(-0.284493 -0.00932325 0.374034)
(-0.0825268 -0.0126791 0.472937)
(-0.157686 -0.0220208 0.312793)
(0.0024936 -0.013893 0.134226)
(-0.149892 -0.0168628 0.0878628)
(-0.12443 -0.0195079 0.219427)
(-0.0609592 -0.0287334 0.449421)
(0.0104614 -0.0146379 0.175561)
(-0.113545 -0.0211486 0.270982)
(-0.305296 -0.0108231 0.3405)
(-0.199989 -0.0187329 0.116825)
(-0.170465 -0.0211759 0.257982)
(-0.199707 0.00567124 -0.213852)
(-0.354127 0.00425485 -0.0420348)
(-0.230618 -0.0109815 -0.0830194)
(-0.157074 -0.0177796 0.0475509)
(-0.0461543 -0.0129348 -0.116369)
(-0.179907 -0.0144181 -0.0625031)
(-0.366405 -0.00459518 0.00869512)
(-0.207887 -0.0195645 0.0742848)
(-0.227914 -0.0147174 -0.0441371)
(-0.164824 -0.00359459 -0.227659)
(-0.0545632 -0.01285 -0.156104)
(-0.184982 -0.0120553 -0.10074)
(0.498408 2.50033 -7.00464)
(0.588158 2.29791 -6.49815)
(0.469699 2.16812 -6.91061)
(0.509039 2.04782 -6.47834)
(0.284054 -0.00937111 -0.374789)
(0.081213 -0.012743 -0.475643)
(0.157203 -0.0220266 -0.314244)
(0.149398 -0.0167072 -0.0881406)
(-0.00319122 -0.0141172 -0.135312)
(0.124061 -0.0195204 -0.220624)
(0.304664 -0.0107955 -0.340959)
(0.199313 -0.018579 -0.116954)
(0.170062 -0.0211409 -0.259039)
(0.0600891 -0.0290182 -0.45257)
(-0.0113816 -0.0148169 -0.176954)
(0.113047 -0.0211861 -0.272551)
(1.06561 2.27527 -4.93586)
(1.08211 2.22717 -4.83144)
(1.12623 2.65319 -6.32655)
(1.01679 2.55641 -6.17518)
(-0.48838 2.4275 6.8586)
(-0.679701 2.21022 6.50011)
(-0.538581 2.02261 6.74066)
(-0.48667 2.06983 6.59269)
(-0.0273505 1.16019 0.834045)
(0.0194291 0.858727 1.0171)
(-0.112052 0.535276 1.64614)
(-0.446679 -0.4125 3.85194)
(-0.3307 -0.99647 1.67008)
(-0.503239 -0.738623 1.5698)
(-0.21695 -0.131968 1.95808)
(-0.60633 -1.24747 1.454)
(-0.727619 0.891104 -2.10493)
(0.229904 0.771512 -1.62485)
(-0.211282 0.771496 -2.6672)
(-0.370269 0.0806464 -1.27984)
(-0.411589 0.267334 -1.59485)
(-0.274441 0.625589 -1.71767)
(-0.514496 1.01805 -1.54713)
(-0.333083 -0.0250353 0.0366409)
(-0.371643 1.54692 -1.60832)
(-0.261432 1.37474 -1.57938)
(-0.141232 0.87711 -0.985527)
(-1.09664 2.11617 3.97712)
(-1.09813 2.13408 4.12461)
(-0.0494221 0.121086 0.443339)
(-0.192299 0.289583 0.381021)
(-0.689555 0.365771 0.846955)
(-0.720082 0.660092 0.740048)
(-0.0133422 0.00693204 0.462534)
(-0.21585 0.393429 0.396245)
(-0.463667 0.120042 0.780606)
(-0.392534 0.328161 0.754059)
(-0.105592 0.100405 0.00201464)
(-0.381194 0.0246401 -0.0503253)
(-0.534855 -0.328873 -0.0869917)
(-0.688331 -0.219146 -0.0810049)
(-0.728108 -0.179689 -0.0768997)
(-0.393444 0.00789517 0.00708561)
(0.336084 -0.0214438 -0.0378948)
(0.373584 1.60463 1.63663)
(0.265845 1.45779 1.6192)
(0.150848 0.883751 0.99836)
(0.0646571 0.32232 -0.3033)
(0.193581 1.057 -1.062)
(0.444239 0.779363 -0.766379)
(-0.379797 0.0320061 -0.233303)
(-0.590026 0.0668335 0.279164)
(-0.312994 0.0337381 0.0946414)
(-0.695122 0.0791974 -0.026455)
(-0.265371 0.048501 -0.982028)
(-0.368589 0.0356886 -0.786629)
(-0.322492 0.0237403 -0.3923)
(-0.139832 0.0235087 -0.511988)
(-0.715691 0.0900318 0.42163)
(-0.886112 0.19094 0.105615)
(-0.136581 0.0100567 0.216046)
(-0.950556 0.864038 1.1793)
(0.0235016 1.12426 -0.841412)
(-0.0327827 0.881186 -1.01124)
(0.112744 0.51568 -1.63529)
(0.417278 -0.518561 -3.74935)
(0.221957 -1.03374 -1.62317)
(0.408105 -0.67332 -1.58981)
(-0.064165 0.595155 -0.733179)
(0.36249 -0.254194 -1.83789)
(0.577352 -1.12548 -1.43679)
(-0.36715 1.62645 -2.59046)
(-0.422899 -0.452739 -4.54027)
(0.669334 -1.43967 -4.90409)
(0.79174 1.30333 -2.44186)
(1.09385 2.09845 -3.93104)
(1.14693 2.12767 -4.23468)
(0.265306 0.0485479 0.982893)
(0.367041 0.0353567 0.788164)
(0.321951 0.0236953 0.39299)
(0.139462 0.02352 0.512595)
(0.379239 0.0319497 0.233936)
(0.589456 0.0667116 -0.278198)
(0.312535 0.0337484 -0.0940029)
(0.694428 0.079034 0.027319)
(0.945218 0.568203 0.0101927)
(0.715037 0.0898726 -0.420229)
(0.885322 0.190565 -0.104417)
(0.126909 0.00141062 -0.223824)
(0.94893 0.860088 -1.17652)
(0.449094 -0.599696 4.55486)
(-0.704967 -1.39219 4.9651)
(0.679892 -5.01573 14.8397)
(0.315167 -1.43881 10.6768)
(2.13964 -0.644019 14.3137)
(0.280598 -5.67496 12.0496)
(-0.21256 -0.476899 9.8834)
(0.192651 -4.44855 14.658)
(-0.0414113 -1.10647 6.29044)
(0.525871 -3.77583 13.6582)
(1.11005 -2.22615 6.61149)
(1.14708 -2.027 7.66653)
(0.57947 2.25941 -6.55879)
(0.726266 2.44156 -7.21007)
(0.474659 4.05751 -11.6183)
(0.616937 2.68319 -7.38716)
(0.723904 2.1092 -5.93898)
(0.159889 4.01052 -10.8685)
(-0.330254 1.15366 -1.25446)
(1.03205 2.74494 -8.46771)
(1.31413 2.84923 -8.19055)
(-0.384537 1.56585 -7.50975)
(0.278692 2.63914 -11.7808)
(0.192384 2.2322 -10.0341)
(-0.332666 2.5239 -10.7715)
(2.34543 2.84723 -6.98696)
(0.948501 2.66052 -10.1719)
(1.37545 3.39572 -9.83251)
(0.994328 2.96508 -11.7423)
(0.345054 2.4105 -11.4804)
(0.0293662 2.57766 -11.7603)
(0.312241 2.55701 -12.6554)
(-0.825733 -0.0720189 -1.14817)
(0.740696 3.28906 -14.0993)
(-0.169395 2.60154 12.5273)
(0.338905 -0.20952 2.01799)
(-0.443821 3.54081 15.0128)
(0.0754821 -0.628495 0.812875)
(-1.08788 2.74711 8.46682)
(-1.21856 2.65654 7.4465)
(0.324225 1.5195 7.62483)
(-0.279702 2.5519 11.6827)
(-0.231654 2.07489 9.7974)
(0.32544 2.43812 10.7696)
(0.0379203 1.69554 8.63867)
(-2.38698 2.89808 7.17683)
(-0.964619 2.67352 10.1807)
(-1.33528 3.20788 9.74281)
(-0.995196 2.96571 11.7712)
(-0.378909 2.40595 11.3246)
(-0.0148666 2.6162 11.5748)
(-0.290406 0.843058 3.6026)
(-0.248274 2.10265 3.49623)
(-0.845035 2.55539 11.5522)
(-0.657308 1.6899 3.36228)
(-0.645299 1.46698 3.41841)
(-1.13551 2.60165 11.3624)
(-1.15234 3.57723 11.4435)
(-0.583211 1.48427 4.75745)
(-0.790547 2.34747 6.27043)
(-0.519293 2.58492 11.4812)
(-0.661012 1.86673 5.35102)
(-1.07628 2.29375 7.69404)
(-1.17205 2.60823 9.59432)
(-0.484567 1.41034 4.70302)
(-0.969908 2.98234 9.53404)
(-0.964858 2.72376 9.69066)
(-0.604133 1.74289 5.46726)
(-0.87042 2.61542 6.78642)
(-0.62643 2.30645 6.62811)
(-0.676429 2.30141 7.10539)
(-0.749002 2.1039 5.98774)
(-0.466705 3.73731 11.0346)
(-0.0716663 4.03012 10.8845)
(0.284606 0.452362 0.106274)
(0.466559 0.566142 0.238064)
(0.449988 1.00987 1.3378)
(0.387292 0.815527 0.810694)
(-0.501225 1.2141 1.35601)
(0.688772 1.19759 2.14261)
(-0.682279 -5.02222 -14.8407)
(-0.319188 -1.4436 -10.6648)
(-0.281489 -5.68591 -12.0464)
(0.211386 -0.482758 -9.86264)
(-0.192521 -4.4574 -14.6478)
(0.0378126 -1.10717 -6.27975)
(-0.523156 -3.78089 -13.6584)
(-1.11157 -2.22694 -6.60391)
(-1.14903 -2.02976 -7.65746)
(-1.92425 -5.49734 -13.6256)
(-0.516858 0.990798 -1.54727)
(-0.388935 0.831721 -0.813926)
(-0.441004 0.566081 -0.239024)
(-0.740919 1.21228 -2.15661)
(0.316664 0.852581 -3.61633)
(0.271231 2.1123 -3.56335)
(0.867495 2.58276 -11.5813)
(0.595143 1.6881 -3.27066)
(0.533171 1.50453 -3.47707)
(1.13482 2.62418 -11.319)
(0.775319 4.86175 -10.2005)
(0.58942 1.47393 -4.61348)
(0.781368 2.33934 -6.19567)
(0.626336 1.8643 -5.33171)
(0.995828 2.339 -7.67318)
(1.15192 2.69802 -9.5935)
(0.558017 2.59327 -11.5015)
(0.469561 1.39933 -4.63801)
(0.98528 2.76401 -9.77569)
(0.909784 2.96496 -9.37607)
(0.591241 1.73825 -5.48203)
(0.858256 2.61149 -6.77882)
(-0.152353 0.359887 0.361081)
(0.175022 0.0095145 0.259656)
(-0.157267 0.445573 0.355262)
(0.124106 0.264071 0.0602471)
(0.17033 0.0350024 0.239712)
(0.128186 0.242751 0.0511516)
(0.533187 -0.33408 0.0957681)
(0.691999 -0.215504 0.0805111)
(0.73021 -0.177598 0.0784513)
(0.391583 0.0077968 -0.00707379)
(0.0988927 0.106136 -0.00290245)
(0.379624 0.0244614 0.0499945)
(0.10734 0.0913635 0.00253401)
(0.275489 -0.553054 7.19509)
(-0.144052 3.94276 11.0032)
(0.462381 1.32962 6.99001)
(1.26126 -1.60422 10.9517)
(0.566452 -6.78571 21.5589)
(-0.496574 -3.20021 15.9037)
(-0.0162803 -4.91792 15.5338)
(0.734722 -1.32377 8.51733)
(-0.0305737 4.02829 11.2968)
(-0.139526 -6.31653 21.1566)
(0.907128 -6.78144 19.8157)
(0.169903 -1.22223 11.1961)
(0.498532 1.17831 8.24666)
(1.11836 -1.82402 11.3536)
(-0.488943 1.21642 8.67125)
(0.869407 -5.75287 15.1805)
(0.92915 -5.64241 12.3367)
(0.574424 -4.99485 15.6953)
(-0.254142 1.59146 8.57368)
(-0.341712 -0.0487813 -0.122145)
(-0.398827 -0.108816 -0.162074)
(-0.320083 -0.196381 -0.0193823)
(-0.013606 -0.413803 0.0786524)
(4.60872 4.7725 -9.30646)
(-4.964 1.4211 -15.7175)
(-1.88124 0.836707 -6.45377)
(-0.976032 2.74357 5.37555)
(-0.688182 1.72632 4.62363)
(-0.613348 1.94506 4.69205)
(-1.12969 2.67701 6.79765)
(-0.540484 1.22825 4.03483)
(-0.56192 1.8413 4.65245)
(0.2728 0.631039 1.3217)
(0.534287 0.713464 1.14111)
(-0.775717 2.19867 4.47788)
(-0.593559 1.38823 3.56645)
(-0.741392 1.94108 4.09992)
(0.39361 0.370122 0.780528)
(-0.829225 1.98158 3.97676)
(-0.630615 1.32581 3.38632)
(1.01639 0.492899 0.889918)
(1.1677 0.802095 1.08177)
(0.961662 0.459316 0.39972)
(-1.02987 2.64465 4.55154)
(0.464521 1.78475 2.35631)
(-0.922197 1.67474 3.04202)
(1.34879 0.31327 0.487802)
(-1.0109 2.51777 3.51254)
(-0.876731 1.72666 3.22421)
(1.07247 0.314614 0.793601)
(-0.855988 1.6174 2.99292)
(-0.710269 1.33782 2.63521)
(-0.838983 1.71988 3.19375)
(1.19779 0.573506 1.12013)
(1.12031 0.543732 0.872342)
(-0.890743 2.05271 3.32089)
(-0.864137 1.90188 3.59714)
(1.27589 0.306819 0.498922)
(-1.34627 2.30505 5.48892)
(1.09377 0.449909 0.810656)
(1.17474 0.574248 1.02184)
(-0.809726 1.73848 3.38204)
(-0.727211 1.42606 3.11555)
(-0.823831 1.68973 3.31162)
(1.1466 0.498717 1.01402)
(1.04596 0.474099 0.801594)
(0.957089 0.535486 1.59042)
(-0.960027 1.5516 2.05336)
(1.79977 0.134598 0.253867)
(1.65731 0.157 0.257817)
(-1.01947 1.66106 1.55502)
(-1.56355 2.39439 2.65286)
(-1.38718 1.80104 2.75229)
(1.5911 0.181131 0.419637)
(1.27275 0.437597 0.487621)
(-0.86993 1.70294 2.5484)
(1.13422 0.331549 0.65016)
(1.11506 0.298918 0.757967)
(1.25242 0.455909 0.922942)
(1.29369 0.107822 0.216012)
(1.21505 0.70869 0.382958)
(-1.47099 1.62586 1.23902)
(-1.27939 1.24515 1.03682)
(-1.13969 1.214 1.30865)
(-1.2227 1.24757 1.25273)
(-1.1839 1.45296 1.40056)
(1.30059 0.41294 0.483694)
(1.27222 0.558792 0.322296)
(-1.25428 1.41783 1.90084)
(-1.25586 1.43976 1.81394)
(-1.10608 1.25169 1.34871)
(-1.08132 1.42471 1.52712)
(1.3522 0.367496 0.495891)
(1.37957 0.473438 0.389731)
(-1.51841 1.30597 1.22206)
(-1.64415 1.24651 1.27322)
(-1.75506 1.30176 1.38592)
(-1.68132 1.20044 1.25091)
(0.510437 0.230829 0.359498)
(-1.55659 0.682325 0.862657)
(-1.53706 0.603956 0.851668)
(0.294476 0.520733 0.574451)
(0.439546 0.303707 0.348879)
(-1.72882 0.82493 0.966165)
(-0.746418 -0.374297 0.24523)
(-0.759856 -0.334936 0.130264)
(-0.577935 -0.408878 0.240057)
(-0.610775 -0.436614 0.369937)
(-0.747376 -0.413577 0.309594)
(-0.824325 -0.51206 0.417772)
(-0.648886 -0.476985 0.291962)
(-0.469045 -0.243631 0.54153)
(0.156025 0.586667 0.859507)
(0.179793 0.509516 0.864753)
(-1.04427 0.473177 0.734541)
(-0.616602 0.268663 0.438739)
(-0.870469 0.403162 0.69699)
(-0.150332 0.00103885 -0.290486)
(-0.104543 0.141301 -0.194)
(-0.0149134 0.515973 -0.284551)
(0.166078 0.58995 -0.359625)
(-4.47112 4.16136 9.73945)
(0.930078 2.61288 10.0013)
(5.24685 0.955418 17.7459)
(1.72936 0.149127 6.16791)
(-3.62853 2.34928 11.7615)
(-0.395218 1.53562 4.47381)
(-0.611789 2.00864 5.86794)
(-0.653623 2.27784 5.682)
(-1.27972 2.92148 8.81843)
(-0.981938 2.1789 7.37579)
(-1.01339 2.16612 7.57415)
(-0.329038 1.16942 3.2403)
(-0.308528 0.992421 3.4079)
(-0.0268575 0.783551 2.88119)
(-0.2374 1.27231 4.40082)
(-0.901182 2.47869 7.74246)
(-0.538654 1.4737 3.92974)
(-0.574998 2.76544 5.87901)
(-0.718433 1.98998 5.22097)
(-0.791337 2.15833 7.14521)
(-1.06809 2.63063 8.97641)
(-0.32694 0.754484 3.02476)
(0.0397457 1.97565 5.76956)
(-0.677767 2.16831 5.68089)