# Forces      
# CofR        : (0.000000e+00 0.000000e+00 0.000000e+00)
# Time        forces(pressure viscous)	moments(pressure viscous)
0.100003      	((-1.340913e-02 7.608506e+00 -2.481791e-03) (1.424524e-04 -2.420277e-02 8.804957e-05)) ((-3.773112e-03 -1.572476e-01 -2.035736e-03) (-5.970278e-06 1.770262e-03 -3.572018e-06))
0.100009      	((-1.883330e-02 1.854295e+01 -4.919216e-03) (8.815937e-05 6.750773e-03 5.630320e-05)) ((-4.543261e-03 -4.737534e-01 -2.518062e-03) (-7.157527e-06 4.085780e-04 -4.355027e-06))
0.100015      	((-9.403672e-03 -3.277656e+00 -8.433474e-05) (8.658978e-05 5.960715e-03 5.592634e-05)) ((-3.440222e-03 1.637045e-01 -1.713409e-03) (-6.782626e-06 4.405802e-04 -4.046211e-06))
0.100022      	((-1.371005e-02 7.176320e+00 -2.220110e-03) (8.840274e-05 5.998955e-03 5.712426e-05)) ((-3.937770e-03 -1.418919e-01 -2.064451e-03) (-6.952448e-06 4.396902e-04 -4.097869e-06))
0.100028      	((-1.403308e-02 7.605675e+00 -2.231511e-03) (8.979680e-05 6.014902e-03 5.781644e-05)) ((-4.095562e-03 -1.567746e-01 -2.113850e-03) (-6.992952e-06 4.393918e-04 -4.082443e-06))
0.100034      	((-1.392268e-02 7.616992e+00 -2.091657e-03) (9.090672e-05 6.024110e-03 5.839229e-05)) ((-4.119772e-03 -1.573170e-01 -2.101915e-03) (-7.053963e-06 4.392193e-04 -4.075977e-06))
0.100041      	((-1.411857e-02 7.616751e+00 -2.085009e-03) (9.199971e-05 6.029900e-03 5.887719e-05)) ((-4.190691e-03 -1.573873e-01 -2.113601e-03) (-7.112132e-06 4.391348e-04 -4.067588e-06))
0.100047      	((-1.418371e-02 7.615051e+00 -1.986556e-03) (9.298662e-05 6.034540e-03 5.935207e-05)) ((-4.247124e-03 -1.573680e-01 -2.117799e-03) (-7.180560e-06 4.390950e-04 -4.063343e-06))
0.100053      	((-1.435409e-02 7.613572e+00 -1.927988e-03) (9.393717e-05 6.038155e-03 5.980352e-05)) ((-4.326475e-03 -1.573512e-01 -2.132521e-03) (-7.251146e-06 4.390711e-04 -4.059235e-06))
0.10006       	((-1.442524e-02 7.612026e+00 -1.842725e-03) (9.484482e-05 6.041304e-03 6.024464e-05)) ((-4.387887e-03 -1.573211e-01 -2.137565e-03) (-7.326168e-06 4.390565e-04 -4.056367e-06))
0.100066      	((-1.457328e-02 7.610659e+00 -1.767425e-03) (9.572524e-05 6.043873e-03 6.069379e-05)) ((-4.461988e-03 -1.572988e-01 -2.148071e-03) (-7.402388e-06 4.390442e-04 -4.053353e-06))
0.100072      	((-1.466231e-02 7.609408e+00 -1.691765e-03) (9.657823e-05 6.046093e-03 6.111366e-05)) ((-4.526581e-03 -1.572731e-01 -2.153181e-03) (-7.477249e-06 4.390338e-04 -4.048637e-06))
0.100078      	((-1.480041e-02 7.608203e+00 -1.604079e-03) (9.742595e-05 6.047848e-03 6.153479e-05)) ((-4.599628e-03 -1.572505e-01 -2.161671e-03) (-7.549163e-06 4.390240e-04 -4.041636e-06))
0.100085      	((-1.489173e-02 7.607044e+00 -1.520188e-03) (9.827746e-05 6.049359e-03 6.194412e-05)) ((-4.666080e-03 -1.572256e-01 -2.166217e-03) (-7.618731e-06 4.390140e-04 -4.032673e-06))
0.100091      	((-1.501871e-02 7.605872e+00 -1.441980e-03) (9.910880e-05 6.050538e-03 6.234542e-05)) ((-4.737411e-03 -1.572036e-01 -2.172578e-03) (-7.690423e-06 4.390039e-04 -4.024072e-06))
0.100097      	((-1.515229e-02 7.604776e+00 -1.368768e-03) (9.994369e-05 6.051538e-03 6.273777e-05)) ((-4.807828e-03 -1.571805e-01 -2.177818e-03) (-7.763978e-06 4.389939e-04 -4.015534e-06))
0.100104      	((-1.525872e-02 7.603676e+00 -1.276962e-03) (1.008071e-04 6.052279e-03 6.314763e-05)) ((-4.877351e-03 -1.571595e-01 -2.182006e-03) (-7.841668e-06 4.389846e-04 -4.008316e-06))
0.10011       	((-1.536361e-02 7.602686e+00 -1.198833e-03) (1.016892e-04 6.052892e-03 6.353768e-05)) ((-4.946224e-03 -1.571395e-01 -2.185137e-03) (-7.920691e-06 4.389739e-04 -4.001111e-06))
0.100116      	((-1.546935e-02 7.601671e+00 -1.104553e-03) (1.026075e-04 6.053319e-03 6.388313e-05)) ((-5.016479e-03 -1.571207e-01 -2.188322e-03) (-8.001532e-06 4.389617e-04 -3.994187e-06))
0.100123      	((-1.560756e-02 7.600701e+00 -1.023857e-03) (1.036232e-04 6.053694e-03 6.414857e-05)) ((-5.091270e-03 -1.571006e-01 -2.192999e-03) (-8.084111e-06 4.389506e-04 -3.987527e-06))
0.100129      	((-1.572665e-02 7.599712e+00 -9.439350e-04) (1.047602e-04 6.053908e-03 6.435106e-05)) ((-5.164639e-03 -1.570816e-01 -2.196471e-03) (-8.167868e-06 4.389411e-04 -3.980783e-06))
0.100135      	((-1.583260e-02 7.598829e+00 -8.575608e-04) (1.060139e-04 6.054079e-03 6.452299e-05)) ((-5.238872e-03 -1.570637e-01 -2.199470e-03) (-8.248205e-06 4.389366e-04 -3.971959e-06))
0.100142      	((-1.598898e-02 7.597893e+00 -7.931201e-04) (1.073551e-04 6.054169e-03 6.461753e-05)) ((-5.318097e-03 -1.570458e-01 -2.204375e-03) (-8.329030e-06 4.389361e-04 -3.962684e-06))
0.100148      	((-1.612024e-02 7.596944e+00 -6.577617e-04) (1.087466e-04 6.054231e-03 6.465689e-05)) ((-5.394932e-03 -1.570267e-01 -2.207208e-03) (-8.412612e-06 4.389402e-04 -3.953917e-06))
0.100154      	((-1.622503e-02 7.596010e+00 -5.931493e-04) (1.101021e-04 6.054215e-03 6.470328e-05)) ((-5.469136e-03 -1.570070e-01 -2.208666e-03) (-8.503556e-06 4.389465e-04 -3.947439e-06))
0.100161      	((-1.635929e-02 7.595022e+00 -5.117691e-04) (1.114362e-04 6.054190e-03 6.481584e-05)) ((-5.547612e-03 -1.569859e-01 -2.210953e-03) (-8.597094e-06 4.389510e-04 -3.941157e-06))
0.100167      	((-1.648497e-02 7.594068e+00 -4.177766e-04) (1.126251e-04 6.054101e-03 6.499526e-05)) ((-5.627346e-03 -1.569661e-01 -2.213020e-03) (-8.694022e-06 4.389457e-04 -3.935318e-06))
0.100173      	((-1.664396e-02 7.593049e+00 -3.395724e-04) (1.137351e-04 6.054006e-03 6.519984e-05)) ((-5.708843e-03 -1.569440e-01 -2.215008e-03) (-8.794003e-06 4.389369e-04 -3.929662e-06))
0.10018       	((-1.676609e-02 7.592018e+00 -2.353333e-04) (1.148588e-04 6.053901e-03 6.542659e-05)) ((-5.789888e-03 -1.569231e-01 -2.216032e-03) (-8.889478e-06 4.389157e-04 -3.921716e-06))
0.100186      	((-1.689170e-02 7.590931e+00 -1.326080e-04) (1.161212e-04 6.053814e-03 6.568616e-05)) ((-5.873021e-03 -1.569010e-01 -2.216922e-03) (-8.982924e-06 4.388746e-04 -3.912575e-06))
0.100192      	((-1.701104e-02 7.589935e+00 -4.732834e-05) (1.174534e-04 6.053680e-03 6.598612e-05)) ((-5.953500e-03 -1.568795e-01 -2.216277e-03) (-9.075324e-06 4.388260e-04 -3.902536e-06))
0.100199      	((-1.717895e-02 7.588830e+00 3.374364e-05) (1.188287e-04 6.053552e-03 6.631896e-05)) ((-6.038060e-03 -1.568557e-01 -2.216495e-03) (-9.167967e-06 4.387760e-04 -3.891871e-06))
0.100205      	((-1.727979e-02 7.587732e+00 1.497421e-04) (1.202338e-04 6.053365e-03 6.659772e-05)) ((-6.116619e-03 -1.568327e-01 -2.213676e-03) (-9.261999e-06 4.387265e-04 -3.881215e-06))
0.100211      	((-1.742338e-02 7.586639e+00 2.404390e-04) (1.216713e-04 6.053123e-03 6.673863e-05)) ((-6.198556e-03 -1.568093e-01 -2.211279e-03) (-9.357408e-06 4.386801e-04 -3.870458e-06))
0.100218      	((-1.752943e-02 7.585556e+00 3.525485e-04) (1.231330e-04 6.052829e-03 6.676690e-05)) ((-6.278524e-03 -1.567868e-01 -2.207503e-03) (-9.452646e-06 4.386386e-04 -3.859094e-06))
0.100224      	((-1.767818e-02 7.584455e+00 4.236453e-04) (1.244325e-04 6.052558e-03 6.673405e-05)) ((-6.360433e-03 -1.567636e-01 -2.203803e-03) (-9.553074e-06 4.385874e-04 -3.848371e-06))
0.10023       	((-1.782512e-02 7.583298e+00 5.649096e-04) (1.256308e-04 6.052208e-03 6.671632e-05)) ((-6.443550e-03 -1.567400e-01 -2.199875e-03) (-9.649156e-06 4.385298e-04 -3.835213e-06))
0.100237      	((-1.799143e-02 7.582305e+00 6.457972e-04) (1.267809e-04 6.051819e-03 6.671019e-05)) ((-6.531400e-03 -1.567192e-01 -2.196937e-03) (-9.739592e-06 4.384676e-04 -3.819137e-06))
0.100243      	((-1.811835e-02 7.581196e+00 7.445935e-04) (1.279044e-04 6.051352e-03 6.671320e-05)) ((-6.614849e-03 -1.566964e-01 -2.191802e-03) (-9.830074e-06 4.384018e-04 -3.802392e-06))
0.10025       	((-1.826732e-02 7.580115e+00 8.266718e-04) (1.290319e-04 6.050868e-03 6.670605e-05)) ((-6.701876e-03 -1.566726e-01 -2.186971e-03) (-9.919972e-06 4.383359e-04 -3.784660e-06))
0.100256      	((-1.840040e-02 7.579013e+00 9.478247e-04) (1.301372e-04 6.050290e-03 6.672619e-05)) ((-6.784723e-03 -1.566491e-01 -2.180017e-03) (-1.000997e-05 4.382716e-04 -3.766264e-06))
0.100262      	((-1.854136e-02 7.577884e+00 1.049692e-03) (1.312020e-04 6.049709e-03 6.666993e-05)) ((-6.868875e-03 -1.566233e-01 -2.172490e-03) (-1.010354e-05 4.382062e-04 -3.748133e-06))
0.100269      	((-1.865473e-02 7.576729e+00 1.161761e-03) (1.322207e-04 6.049027e-03 6.651496e-05)) ((-6.950131e-03 -1.565980e-01 -2.163411e-03) (-1.019601e-05 4.381397e-04 -3.728753e-06))
0.100275      	((-1.877630e-02 7.575589e+00 1.271089e-03) (1.332010e-04 6.048318e-03 6.623346e-05)) ((-7.032000e-03 -1.565729e-01 -2.153622e-03) (-1.028807e-05 4.380716e-04 -3.708440e-06))
0.100281      	((-1.888752e-02 7.574419e+00 1.387666e-03) (1.341406e-04 6.047530e-03 6.585983e-05)) ((-7.112017e-03 -1.565481e-01 -2.142591e-03) (-1.038028e-05 4.380013e-04 -3.687526e-06))
0.100288      	((-1.901495e-02 7.573367e+00 1.507932e-03) (1.350546e-04 6.046713e-03 6.538742e-05)) ((-7.195417e-03 -1.565251e-01 -2.131756e-03) (-1.047204e-05 4.379311e-04 -3.665745e-06))
0.100294      	((-1.910439e-02 7.572154e+00 1.602361e-03) (1.359382e-04 6.045826e-03 6.483170e-05)) ((-7.272714e-03 -1.564984e-01 -2.118415e-03) (-1.056407e-05 4.378610e-04 -3.643298e-06))
0.1003        	((-1.921372e-02 7.571064e+00 1.735887e-03) (1.368180e-04 6.044936e-03 6.416685e-05)) ((-7.355811e-03 -1.564736e-01 -2.106032e-03) (-1.065309e-05 4.377893e-04 -3.619204e-06))
0.100307      	((-1.933718e-02 7.569875e+00 1.824236e-03) (1.377014e-04 6.043970e-03 6.341363e-05)) ((-7.433331e-03 -1.564484e-01 -2.091426e-03) (-1.074064e-05 4.377168e-04 -3.594072e-06))
0.100313      	((-1.942688e-02 7.568708e+00 1.942472e-03) (1.386049e-04 6.043010e-03 6.256297e-05)) ((-7.511207e-03 -1.564223e-01 -2.075972e-03) (-1.082609e-05 4.376428e-04 -3.567575e-06))
0.100319      	((-1.949217e-02 7.567552e+00 2.079011e-03) (1.394998e-04 6.042007e-03 6.165509e-05)) ((-7.583252e-03 -1.563973e-01 -2.058208e-03) (-1.090812e-05 4.375658e-04 -3.539362e-06))
0.100326      	((-1.958275e-02 7.566446e+00 2.193174e-03) (1.404214e-04 6.041030e-03 6.064913e-05)) ((-7.659528e-03 -1.563725e-01 -2.040970e-03) (-1.098629e-05 4.374849e-04 -3.509412e-06))
0.100332      	((-1.966671e-02 7.565224e+00 2.309578e-03) (1.413460e-04 6.040016e-03 5.959272e-05)) ((-7.734298e-03 -1.563455e-01 -2.022751e-03) (-1.106203e-05 4.373995e-04 -3.478147e-06))
0.100338      	((-1.977520e-02 7.564032e+00 2.422691e-03) (1.422825e-04 6.039013e-03 5.848223e-05)) ((-7.809119e-03 -1.563190e-01 -2.003732e-03) (-1.113348e-05 4.373109e-04 -3.444915e-06))
0.100345      	((-1.978600e-02 7.562837e+00 2.557745e-03) (1.432055e-04 6.037966e-03 5.733807e-05)) ((-7.873187e-03 -1.562935e-01 -1.981146e-03) (-1.120415e-05 4.372207e-04 -3.410834e-06))
0.100351      	((-1.985928e-02 7.561657e+00 2.681913e-03) (1.440821e-04 6.036981e-03 5.614061e-05)) ((-7.940401e-03 -1.562682e-01 -1.958792e-03) (-1.127679e-05 4.371259e-04 -3.376388e-06))
0.100357      	((-1.992173e-02 7.560527e+00 2.803492e-03) (1.448579e-04 6.035976e-03 5.489417e-05)) ((-8.006388e-03 -1.562443e-01 -1.935894e-03) (-1.135405e-05 4.370239e-04 -3.342197e-06))
0.100364      	((-1.998918e-02 7.559416e+00 2.926489e-03) (1.455848e-04 6.035019e-03 5.357290e-05)) ((-8.074500e-03 -1.562211e-01 -1.912794e-03) (-1.143159e-05 4.369165e-04 -3.307238e-06))
0.10037       	((-2.005781e-02 7.558252e+00 3.040733e-03) (1.462689e-04 6.034034e-03 5.219557e-05)) ((-8.139760e-03 -1.561971e-01 -1.888639e-03) (-1.151159e-05 4.368033e-04 -3.272119e-06))
0.100376      	((-2.013251e-02 7.557184e+00 3.162705e-03) (1.469469e-04 6.033083e-03 5.073305e-05)) ((-8.205661e-03 -1.561748e-01 -1.864028e-03) (-1.159156e-05 4.366861e-04 -3.236253e-06))
0.100383      	((-2.017494e-02 7.556104e+00 3.290368e-03) (1.476138e-04 6.032057e-03 4.920043e-05)) ((-8.265332e-03 -1.561528e-01 -1.837471e-03) (-1.167476e-05 4.365677e-04 -3.200588e-06))
0.100389      	((-2.023247e-02 7.554999e+00 3.412541e-03) (1.482779e-04 6.031053e-03 4.757103e-05)) ((-8.328609e-03 -1.561298e-01 -1.811252e-03) (-1.175765e-05 4.364483e-04 -3.164031e-06))
0.100396      	((-2.028198e-02 7.553896e+00 3.546041e-03) (1.489333e-04 6.029991e-03 4.587227e-05)) ((-8.389889e-03 -1.561066e-01 -1.784228e-03) (-1.184105e-05 4.363263e-04 -3.126955e-06))
0.100402      	((-2.037142e-02 7.552901e+00 3.622496e-03) (1.495874e-04 6.028958e-03 4.410941e-05)) ((-8.451547e-03 -1.560870e-01 -1.756709e-03) (-1.192094e-05 4.361991e-04 -3.088263e-06))
0.100408      	((-2.040933e-02 7.551826e+00 3.776864e-03) (1.502301e-04 6.027855e-03 4.233183e-05)) ((-8.510712e-03 -1.560654e-01 -1.728160e-03) (-1.199734e-05 4.360681e-04 -3.048197e-06))
0.100415      	((-2.043863e-02 7.550896e+00 3.906988e-03) (1.508708e-04 6.026775e-03 4.055157e-05)) ((-8.562235e-03 -1.560468e-01 -1.697326e-03) (-1.207074e-05 4.359310e-04 -3.006801e-06))
0.100421      	((-2.043801e-02 7.549890e+00 4.007146e-03) (1.515503e-04 6.025683e-03 3.888063e-05)) ((-8.613342e-03 -1.560269e-01 -1.666234e-03) (-1.214241e-05 4.357800e-04 -2.964673e-06))
0.100427      	((-2.054328e-02 7.548953e+00 4.137089e-03) (1.522325e-04 6.024634e-03 3.728768e-05)) ((-8.669402e-03 -1.560079e-01 -1.635895e-03) (-1.221493e-05 4.356145e-04 -2.922137e-06))
0.100434      	((-2.053658e-02 7.548044e+00 4.247391e-03) (1.528214e-04 6.023542e-03 3.540976e-05)) ((-8.719684e-03 -1.559903e-01 -1.603845e-03) (-1.229251e-05 4.354439e-04 -2.880213e-06))
0.10044       	((-2.057920e-02 7.547113e+00 4.365741e-03) (1.532753e-04 6.022493e-03 3.300628e-05)) ((-8.775811e-03 -1.559722e-01 -1.572527e-03) (-1.237022e-05 4.352707e-04 -2.837741e-06))
0.100446      	((-2.062364e-02 7.546181e+00 4.478611e-03) (1.537075e-04 6.021453e-03 3.048209e-05)) ((-8.829138e-03 -1.559545e-01 -1.540357e-03) (-1.244513e-05 4.350997e-04 -2.794447e-06))
0.100453      	((-2.064975e-02 7.545266e+00 4.611807e-03) (1.541679e-04 6.020443e-03 2.814106e-05)) ((-8.878399e-03 -1.559368e-01 -1.506982e-03) (-1.251530e-05 4.349453e-04 -2.749604e-06))
0.100459      	((-2.067841e-02 7.544294e+00 4.719549e-03) (1.546447e-04 6.019415e-03 2.589841e-05)) ((-8.921738e-03 -1.559189e-01 -1.472313e-03) (-1.257771e-05 4.347953e-04 -2.702823e-06))
0.100466      	((-2.068787e-02 7.543408e+00 4.840048e-03) (1.551238e-04 6.018410e-03 2.367267e-05)) ((-8.964380e-03 -1.559011e-01 -1.437021e-03) (-1.263765e-05 4.346472e-04 -2.655068e-06))
0.100472      	((-2.070603e-02 7.542460e+00 4.935750e-03) (1.555998e-04 6.017370e-03 2.141269e-05)) ((-9.004099e-03 -1.558830e-01 -1.401005e-03) (-1.269170e-05 4.344978e-04 -2.605898e-06))
0.100478      	((-2.068177e-02 7.541609e+00 5.061062e-03) (1.560805e-04 6.016357e-03 1.909927e-05)) ((-9.040324e-03 -1.558654e-01 -1.363843e-03) (-1.274269e-05 4.343499e-04 -2.555611e-06))
0.100485      	((-2.066963e-02 7.540706e+00 5.167209e-03) (1.565574e-04 6.015379e-03 1.673655e-05)) ((-9.072424e-03 -1.558475e-01 -1.325783e-03) (-1.279532e-05 4.342004e-04 -2.505562e-06))
0.100491      	((-2.065149e-02 7.539823e+00 5.274598e-03) (1.570429e-04 6.014428e-03 1.435124e-05)) ((-9.103007e-03 -1.558302e-01 -1.287188e-03) (-1.284794e-05 4.340547e-04 -2.455199e-06))
0.100497      	((-2.059721e-02 7.538990e+00 5.409090e-03) (1.575363e-04 6.013460e-03 1.199058e-05)) ((-9.124656e-03 -1.558146e-01 -1.246968e-03) (-1.289637e-05 4.339088e-04 -2.404244e-06))
0.100504      	((-2.057096e-02 7.538162e+00 5.501370e-03) (1.580406e-04 6.012524e-03 9.645094e-06)) ((-9.153266e-03 -1.557992e-01 -1.207759e-03) (-1.294419e-05 4.337624e-04 -2.353070e-06))
0.10051       	((-2.053577e-02 7.537359e+00 5.614543e-03) (1.585535e-04 6.011591e-03 7.383136e-06)) ((-9.175351e-03 -1.557841e-01 -1.167366e-03) (-1.299198e-05 4.336162e-04 -2.301809e-06))
0.100516      	((-2.051395e-02 7.536501e+00 5.704535e-03) (1.590350e-04 6.010695e-03 5.149147e-06)) ((-9.196353e-03 -1.557681e-01 -1.126705e-03) (-1.304012e-05 4.334683e-04 -2.250152e-06))
0.100523      	((-2.039540e-02 7.535723e+00 5.821179e-03) (1.594904e-04 6.009798e-03 2.986446e-06)) ((-9.210240e-03 -1.557535e-01 -1.084863e-03) (-1.308746e-05 4.333191e-04 -2.198184e-06))
0.100529      	((-2.039994e-02 7.534802e+00 5.927304e-03) (1.599036e-04 6.008914e-03 8.789700e-07)) ((-9.229217e-03 -1.557353e-01 -1.043798e-03) (-1.313465e-05 4.331685e-04 -2.145769e-06))
0.100536      	((-2.031998e-02 7.534072e+00 6.024729e-03) (1.603402e-04 6.008009e-03 -1.088339e-06)) ((-9.242360e-03 -1.557216e-01 -1.001858e-03) (-1.318023e-05 4.330211e-04 -2.092810e-06))
0.100542      	((-2.023505e-02 7.533276e+00 6.123434e-03) (1.607170e-04 6.007132e-03 -2.992425e-06)) ((-9.249137e-03 -1.557048e-01 -9.587691e-04) (-1.322393e-05 4.328657e-04 -2.039186e-06))
0.100548      	((-2.018081e-02 7.532691e+00 6.222306e-03) (1.612316e-04 6.006240e-03 -4.818179e-06)) ((-9.264891e-03 -1.556945e-01 -9.173836e-04) (-1.326331e-05 4.327257e-04 -1.984228e-06))
0.100555      	((-2.004650e-02 7.531885e+00 6.320081e-03) (1.615926e-04 6.005426e-03 -6.658448e-06)) ((-9.256122e-03 -1.556759e-01 -8.721391e-04) (-1.330680e-05 4.325677e-04 -1.929819e-06))
0.100561      	((-1.992695e-02 7.531225e+00 6.416737e-03) (1.619462e-04 6.004604e-03 -8.505153e-06)) ((-9.253633e-03 -1.556626e-01 -8.282762e-04) (-1.335279e-05 4.324126e-04 -1.875387e-06))
0.100567      	((-1.990425e-02 7.530684e+00 6.497653e-03) (1.623992e-04 6.003775e-03 -1.041493e-05)) ((-9.261014e-03 -1.556538e-01 -7.858654e-04) (-1.339865e-05 4.322716e-04 -1.820164e-06))
0.100574      	((-1.972069e-02 7.530012e+00 6.582088e-03) (1.627576e-04 6.002911e-03 -1.237757e-05)) ((-9.244224e-03 -1.556394e-01 -7.403296e-04) (-1.344831e-05 4.321234e-04 -1.765387e-06))
0.10058       	((-1.967965e-02 7.529343e+00 6.721582e-03) (1.631388e-04 6.002037e-03 -1.437685e-05)) ((-9.246576e-03 -1.556267e-01 -6.973707e-04) (-1.349695e-05 4.319835e-04 -1.710182e-06))
0.100586      	((-1.951437e-02 7.528869e+00 6.781025e-03) (1.635584e-04 6.001110e-03 -1.643462e-05)) ((-9.231823e-03 -1.556192e-01 -6.526573e-04) (-1.354227e-05 4.318514e-04 -1.654514e-06))
0.100593      	((-1.942813e-02 7.528330e+00 6.858960e-03) (1.639037e-04 6.000171e-03 -1.859170e-05)) ((-9.224792e-03 -1.556097e-01 -6.089118e-04) (-1.358172e-05 4.317175e-04 -1.598193e-06))
0.100599      	((-1.930067e-02 7.527760e+00 6.944782e-03) (1.641593e-04 5.999179e-03 -2.078025e-05)) ((-9.213770e-03 -1.555994e-01 -5.652049e-04) (-1.362462e-05 4.315833e-04 -1.541960e-06))
0.100606      	((-1.918431e-02 7.527193e+00 7.029998e-03) (1.643372e-04 5.998168e-03 -2.298270e-05)) ((-9.200937e-03 -1.555890e-01 -5.213752e-04) (-1.366553e-05 4.314502e-04 -1.485305e-06))
0.100612      	((-1.904665e-02 7.526669e+00 7.109771e-03) (1.644815e-04 5.997119e-03 -2.516354e-05)) ((-9.183362e-03 -1.555787e-01 -4.775882e-04) (-1.370582e-05 4.313228e-04 -1.428617e-06))
0.100618      	((-1.892167e-02 7.526135e+00 7.190608e-03) (1.645770e-04 5.995996e-03 -2.737337e-05)) ((-9.165513e-03 -1.555679e-01 -4.338565e-04) (-1.374413e-05 4.312026e-04 -1.371675e-06))
0.100625      	((-1.878877e-02 7.525633e+00 7.259331e-03) (1.646433e-04 5.994815e-03 -2.951911e-05)) ((-9.143137e-03 -1.555587e-01 -3.903513e-04) (-1.378309e-05 4.310923e-04 -1.314695e-06))
0.100631      	((-1.865924e-02 7.525182e+00 7.334562e-03) (1.646595e-04 5.993629e-03 -3.156276e-05)) ((-9.118922e-03 -1.555501e-01 -3.467539e-04) (-1.381776e-05 4.309916e-04 -1.257096e-06))
0.100637      	((-1.850915e-02 7.524784e+00 7.400684e-03) (1.646735e-04 5.992442e-03 -3.346348e-05)) ((-9.088910e-03 -1.555426e-01 -3.033524e-04) (-1.384928e-05 4.308985e-04 -1.199325e-06))
0.100644      	((-1.837064e-02 7.524399e+00 7.450515e-03) (1.646841e-04 5.991232e-03 -3.525581e-05)) ((-9.060672e-03 -1.555357e-01 -2.601827e-04) (-1.387955e-05 4.308130e-04 -1.141034e-06))
0.10065       	((-1.825544e-02 7.524242e+00 7.540293e-03) (1.646838e-04 5.990061e-03 -3.701390e-05)) ((-9.028679e-03 -1.555352e-01 -2.174634e-04) (-1.391244e-05 4.307303e-04 -1.082757e-06))
0.100657      	((-1.809195e-02 7.523924e+00 7.584418e-03) (1.646399e-04 5.988874e-03 -3.892310e-05)) ((-8.993760e-03 -1.555302e-01 -1.746718e-04) (-1.394518e-05 4.306455e-04 -1.023935e-06))
0.100663      	((-1.793715e-02 7.523674e+00 7.632694e-03) (1.645091e-04 5.987639e-03 -4.093520e-05)) ((-8.956666e-03 -1.555265e-01 -1.324067e-04) (-1.397917e-05 4.305568e-04 -9.649032e-07))
0.100669      	((-1.780663e-02 7.523585e+00 7.687547e-03) (1.643217e-04 5.986442e-03 -4.277105e-05)) ((-8.921501e-03 -1.555261e-01 -9.037672e-05) (-1.400406e-05 4.304528e-04 -9.052415e-07))
0.100676      	((-1.766205e-02 7.523563e+00 7.737574e-03) (1.640603e-04 5.985246e-03 -4.425251e-05)) ((-8.884009e-03 -1.555280e-01 -4.884546e-05) (-1.402590e-05 4.303346e-04 -8.455205e-07))
0.100682      	((-1.754284e-02 7.523530e+00 7.784558e-03) (1.637116e-04 5.984103e-03 -4.553871e-05)) ((-8.851019e-03 -1.555293e-01 -7.708644e-06) (-1.404174e-05 4.302070e-04 -7.853087e-07))
0.100688      	((-1.738826e-02 7.523438e+00 7.822926e-03) (1.633910e-04 5.982989e-03 -4.671353e-05)) ((-8.809341e-03 -1.555303e-01 3.321772e-05) (-1.405316e-05 4.300820e-04 -7.248468e-07))
0.100695      	((-1.721119e-02 7.523335e+00 7.867115e-03) (1.631146e-04 5.981933e-03 -4.777678e-05)) ((-8.763757e-03 -1.555298e-01 7.408240e-05) (-1.405859e-05 4.299618e-04 -6.642190e-07))
0.100701      	((-1.706121e-02 7.523208e+00 7.900096e-03) (1.629032e-04 5.980924e-03 -4.860060e-05)) ((-8.721454e-03 -1.555291e-01 1.143016e-04) (-1.405078e-05 4.298406e-04 -6.037846e-07))
0.100707      	((-1.683730e-02 7.523049e+00 7.932270e-03) (1.626997e-04 5.979991e-03 -4.965569e-05)) ((-8.662527e-03 -1.555285e-01 1.543401e-04) (-1.404943e-05 4.297158e-04 -5.431072e-07))
0.100714      	((-1.663220e-02 7.523095e+00 7.950675e-03) (1.625162e-04 5.979015e-03 -5.097618e-05)) ((-8.600069e-03 -1.555347e-01 1.936024e-04) (-1.404812e-05 4.295929e-04 -4.826057e-07))
0.10072       	((-1.642610e-02 7.518805e+00 7.964693e-03) (1.623583e-04 5.977884e-03 -5.245154e-05)) ((-8.537298e-03 -1.554410e-01 2.324403e-04) (-1.404504e-05 4.294713e-04 -4.219411e-07))
0.100727      	((-1.621977e-02 7.519374e+00 7.972737e-03) (1.622278e-04 5.976742e-03 -5.410287e-05)) ((-8.474440e-03 -1.554644e-01 2.704746e-04) (-1.404328e-05 4.293573e-04 -3.613037e-07))
0.100733      	((-1.603083e-02 7.520028e+00 8.001802e-03) (1.621017e-04 5.975687e-03 -5.583516e-05)) ((-8.414791e-03 -1.554845e-01 3.081496e-04) (-1.404801e-05 4.292517e-04 -3.002914e-07))
0.100739      	((-1.582566e-02 7.520333e+00 8.021862e-03) (1.619418e-04 5.974760e-03 -5.764611e-05)) ((-8.350587e-03 -1.554946e-01 3.450962e-04) (-1.404659e-05 4.291548e-04 -2.394045e-07))
0.100746      	((-1.561825e-02 7.520518e+00 8.019891e-03) (1.617626e-04 5.973923e-03 -5.949152e-05)) ((-8.281852e-03 -1.555010e-01 3.814637e-04) (-1.404509e-05 4.290641e-04 -1.780934e-07))
0.100752      	((-1.538537e-02 7.520597e+00 8.015262e-03) (1.615829e-04 5.973093e-03 -6.133298e-05)) ((-8.209135e-03 -1.555048e-01 4.168908e-04) (-1.404228e-05 4.289775e-04 -1.166276e-07))
0.100758      	((-1.518934e-02 7.520629e+00 8.055985e-03) (1.614417e-04 5.972320e-03 -6.313253e-05)) ((-8.140056e-03 -1.555066e-01 4.517546e-04) (-1.403450e-05 4.288970e-04 -5.501555e-08))
0.100765      	((-1.494243e-02 7.520746e+00 8.032896e-03) (1.613418e-04 5.971580e-03 -6.495387e-05)) ((-8.063515e-03 -1.555107e-01 4.856001e-04) (-1.402281e-05 4.288248e-04 6.038971e-09))
0.100771      	((-1.470609e-02 7.520623e+00 8.028391e-03) (1.612592e-04 5.970879e-03 -6.679027e-05)) ((-7.985173e-03 -1.555088e-01 5.188309e-04) (-1.401069e-05 4.287591e-04 6.697021e-08))
0.100777      	((-1.446717e-02 7.520272e+00 8.013633e-03) (1.611913e-04 5.970178e-03 -6.867611e-05)) ((-7.904573e-03 -1.555022e-01 5.510636e-04) (-1.399583e-05 4.286994e-04 1.272748e-07))
0.100784      	((-1.421421e-02 7.519868e+00 8.010370e-03) (1.611056e-04 5.969492e-03 -7.055149e-05)) ((-7.819901e-03 -1.554941e-01 5.825853e-04) (-1.397966e-05 4.286467e-04 1.872346e-07))
0.10079       	((-1.399015e-02 7.519621e+00 7.971792e-03) (1.610097e-04 5.968784e-03 -7.240733e-05)) ((-7.735891e-03 -1.554908e-01 6.130887e-04) (-1.395895e-05 4.286012e-04 2.463593e-07))
0.100797      	((-1.373108e-02 7.519641e+00 7.963034e-03) (1.609043e-04 5.968120e-03 -7.429242e-05)) ((-7.650343e-03 -1.554953e-01 6.429657e-04) (-1.393439e-05 4.285587e-04 3.050117e-07))
0.100803      	((-1.350546e-02 7.519763e+00 7.929581e-03) (1.607840e-04 5.967548e-03 -7.619039e-05)) ((-7.564788e-03 -1.555039e-01 6.718850e-04) (-1.390338e-05 4.285137e-04 3.629382e-07))
0.100809      	((-1.327067e-02 7.519936e+00 7.920804e-03) (1.606199e-04 5.967043e-03 -7.810759e-05)) ((-7.477889e-03 -1.555124e-01 7.001190e-04) (-1.387064e-05 4.284687e-04 4.203585e-07))
0.100816      	((-1.299910e-02 7.520038e+00 7.881350e-03) (1.603892e-04 5.966502e-03 -7.996163e-05)) ((-7.388401e-03 -1.555204e-01 7.271993e-04) (-1.383390e-05 4.284249e-04 4.768593e-07))
0.100822      	((-1.275286e-02 7.520122e+00 7.850876e-03) (1.601020e-04 5.965992e-03 -8.170755e-05)) ((-7.296228e-03 -1.555253e-01 7.532636e-04) (-1.379239e-05 4.283832e-04 5.324590e-07))
0.100828      	((-1.249403e-02 7.520068e+00 7.819989e-03) (1.597796e-04 5.965458e-03 -8.341454e-05)) ((-7.202654e-03 -1.555281e-01 7.782132e-04) (-1.374092e-05 4.283396e-04 5.866549e-07))
0.100835      	((-1.225066e-02 7.519995e+00 7.784417e-03) (1.593823e-04 5.964922e-03 -8.513400e-05)) ((-7.111957e-03 -1.555295e-01 8.026426e-04) (-1.368487e-05 4.282947e-04 6.401991e-07))
0.100841      	((-1.198081e-02 7.519838e+00 7.735962e-03) (1.588852e-04 5.964379e-03 -8.682052e-05)) ((-7.017323e-03 -1.555295e-01 8.257638e-04) (-1.362529e-05 4.282520e-04 6.928595e-07))
0.100847      	((-1.175731e-02 7.519748e+00 7.709365e-03) (1.583035e-04 5.963834e-03 -8.842479e-05)) ((-6.923685e-03 -1.555299e-01 8.481667e-04) (-1.356227e-05 4.282145e-04 7.447833e-07))
0.100854      	((-1.148586e-02 7.519694e+00 7.652504e-03) (1.576237e-04 5.963275e-03 -8.993066e-05)) ((-6.826022e-03 -1.555312e-01 8.692420e-04) (-1.349636e-05 4.281851e-04 7.959173e-07))
0.10086       	((-1.122843e-02 7.519692e+00 7.603713e-03) (1.568670e-04 5.962743e-03 -9.137455e-05)) ((-6.729836e-03 -1.555340e-01 8.897470e-04) (-1.342630e-05 4.281638e-04 8.462716e-07))
0.100866      	((-1.095529e-02 7.519758e+00 7.552769e-03) (1.560243e-04 5.962189e-03 -9.278391e-05)) ((-6.633383e-03 -1.555391e-01 9.093040e-04) (-1.335301e-05 4.281522e-04 8.958854e-07))
0.100873      	((-1.071092e-02 7.519850e+00 7.494910e-03) (1.551118e-04 5.961596e-03 -9.413192e-05)) ((-6.536296e-03 -1.555449e-01 9.278533e-04) (-1.327387e-05 4.281494e-04 9.442723e-07))
0.100879      	((-1.043906e-02 7.519864e+00 7.438162e-03) (1.541015e-04 5.960974e-03 -9.546324e-05)) ((-6.438467e-03 -1.555504e-01 9.454587e-04) (-1.319335e-05 4.281519e-04 9.920057e-07))
0.100886      	((-1.017135e-02 7.519905e+00 7.370614e-03) (1.530108e-04 5.960399e-03 -9.683961e-05)) ((-6.339865e-03 -1.555566e-01 9.620494e-04) (-1.310978e-05 4.281582e-04 1.038888e-06))
0.100892      	((-9.888625e-03 7.519957e+00 7.309415e-03) (1.518111e-04 5.959872e-03 -9.830364e-05)) ((-6.239275e-03 -1.555630e-01 9.775049e-04) (-1.302881e-05 4.281657e-04 1.085536e-06))
0.100898      	((-9.635988e-03 7.519953e+00 7.234281e-03) (1.505821e-04 5.959393e-03 -9.980947e-05)) ((-6.138385e-03 -1.555678e-01 9.919917e-04) (-1.295478e-05 4.281759e-04 1.132656e-06))
0.100905      	((-9.362715e-03 7.519978e+00 7.148337e-03) (1.493716e-04 5.958871e-03 -1.013597e-04)) ((-6.032634e-03 -1.555733e-01 1.004867e-03) (-1.287326e-05 4.281911e-04 1.177779e-06))
0.100911      	((-9.130562e-03 7.520011e+00 7.093702e-03) (1.481758e-04 5.958394e-03 -1.028873e-04)) ((-5.933628e-03 -1.555783e-01 1.017708e-03) (-1.278274e-05 4.282154e-04 1.220911e-06))
0.100917      	((-8.863296e-03 7.519981e+00 7.005465e-03) (1.470014e-04 5.957963e-03 -1.044170e-04)) ((-5.828541e-03 -1.555813e-01 1.028775e-03) (-1.268365e-05 4.282482e-04 1.261565e-06))
0.100924      	((-8.585012e-03 7.519977e+00 6.930360e-03) (1.458792e-04 5.957580e-03 -1.059494e-04)) ((-5.726601e-03 -1.555847e-01 1.039471e-03) (-1.258125e-05 4.282879e-04 1.301153e-06))
0.10093       	((-8.315545e-03 7.519890e+00 6.845987e-03) (1.448147e-04 5.957194e-03 -1.074898e-04)) ((-5.621632e-03 -1.555874e-01 1.048744e-03) (-1.247153e-05 4.283334e-04 1.338379e-06))
0.100936      	((-7.811113e-03 7.520570e+00 6.687775e-03) (1.439985e-04 5.957163e-03 -1.085471e-04)) ((-5.465692e-03 -1.556076e-01 1.044131e-03) (-1.233442e-05 4.283780e-04 1.368276e-06))
0.100943      	((-7.743947e-03 7.519978e+00 6.650807e-03) (1.428179e-04 5.956842e-03 -1.098389e-04)) ((-5.401584e-03 -1.555991e-01 1.061724e-03) (-1.221689e-05 4.284523e-04 1.402500e-06))
0.100949      	((-7.482193e-03 7.519834e+00 6.564009e-03) (1.416506e-04 5.956623e-03 -1.110865e-04)) ((-5.303497e-03 -1.556003e-01 1.069677e-03) (-1.209392e-05 4.285348e-04 1.434625e-06))
0.100955      	((-7.224790e-03 7.519799e+00 6.466771e-03) (1.405742e-04 5.956375e-03 -1.122990e-04)) ((-5.198856e-03 -1.556048e-01 1.075267e-03) (-1.196650e-05 4.286192e-04 1.464540e-06))
0.100962      	((-6.961304e-03 7.519721e+00 6.365762e-03) (1.396160e-04 5.956085e-03 -1.135041e-04)) ((-5.094183e-03 -1.556081e-01 1.079892e-03) (-1.183214e-05 4.287039e-04 1.492195e-06))
0.100968      	((-6.694825e-03 7.519568e+00 6.266856e-03) (1.386959e-04 5.955777e-03 -1.147164e-04)) ((-4.986245e-03 -1.556093e-01 1.082931e-03) (-1.169797e-05 4.287841e-04 1.518533e-06))
0.100974      	((-6.408609e-03 7.519499e+00 6.165876e-03) (1.377981e-04 5.955448e-03 -1.159082e-04)) ((-4.878395e-03 -1.556126e-01 1.085035e-03) (-1.157029e-05 4.288583e-04 1.544739e-06))
0.100981      	((-6.145056e-03 7.519297e+00 6.033833e-03) (1.369119e-04 5.955090e-03 -1.170941e-04)) ((-4.768543e-03 -1.556126e-01 1.085634e-03) (-1.144090e-05 4.289245e-04 1.569176e-06))
0.100987      	((-5.868293e-03 7.519185e+00 5.950860e-03) (1.360283e-04 5.954751e-03 -1.182583e-04)) ((-4.662592e-03 -1.556140e-01 1.086000e-03) (-1.131928e-05 4.289861e-04 1.593994e-06))
0.100993      	((-5.594849e-03 7.519031e+00 5.832329e-03) (1.351493e-04 5.954440e-03 -1.194235e-04)) ((-4.552214e-03 -1.556154e-01 1.084507e-03) (-1.119845e-05 4.290387e-04 1.617750e-06))