# Forces      
# CofR        : (0.000000e+00 0.000000e+00 0.000000e+00)
# Time        forces(pressure viscous)	moments(pressure viscous)
0             	((2.664535e-15 -6.039613e-14 -1.598721e-14) (0.000000e+00 0.000000e+00 0.000000e+00)) ((7.524419e-06 -2.505057e-05 -4.544243e-05) (0.000000e+00 0.000000e+00 0.000000e+00))
1e-05         	((1.255642e-03 1.385898e+02 4.744562e-02) (2.348537e-06 -6.077446e-03 -1.943961e-05)) ((-1.070914e-03 -4.062882e+00 5.996030e-03) (-5.860361e-08 -3.484767e-03 -6.058828e-07))
1.39003e-05   	((-1.528067e-01 -1.116228e+02 -2.099471e+00) (7.165992e-05 -3.735863e-02 -4.604620e-04)) ((-7.555600e-03 7.142350e+00 -2.298060e-01) (-1.326567e-06 -8.048633e-03 -1.473750e-05))
1.85806e-05   	((-1.100602e+01 -6.077386e+03 -5.630579e+01) (-1.880540e-02 -3.063453e+00 -5.253529e-02)) ((-1.794284e+00 2.842462e+02 -2.415295e+00) (-6.959121e-04 1.557558e-01 -4.741509e-03))
1.9068e-05    	((-6.604696e+01 -5.032141e+04 -3.739412e+02) (-1.204066e-01 -1.289603e+01 2.535830e-02)) ((-1.890249e+01 2.264552e+03 1.212297e+01) (-4.910621e-03 2.028204e-01 8.222254e-03))
1.93715e-05   	((2.350625e+02 -3.302816e+04 1.557321e+03) (-1.246145e+00 -2.059868e+01 7.371909e-01)) ((-3.357905e+01 1.476073e+03 3.138002e+02) (-1.170723e-02 6.599631e-01 1.235644e-01))
1.94909e-05   	((3.733329e+02 -1.543150e+04 2.692450e+03) (-8.745246e-01 -1.319996e+01 1.411831e+00)) ((-3.599848e+01 7.222578e+02 4.444811e+02) (-1.585552e-02 7.730742e-01 1.110491e-01))
1.96149e-05   	((2.134080e+02 -5.475899e+03 1.335980e+03) (-7.199590e-01 -8.738397e+00 1.910680e+00)) ((-1.611976e+01 2.711311e+02 2.169294e+02) (-1.102875e-02 8.346342e-01 2.174462e-02))
1.9749e-05    	((8.247185e+01 -1.691355e+03 4.364957e+02) (-1.960931e-01 -7.179092e+00 2.475317e+00)) ((-4.519103e+00 8.981042e+01 6.411472e+01) (-1.008888e-02 9.222609e-01 1.881114e-02))
1.98955e-05   	((2.847698e+01 -6.143679e+02 1.143833e+02) (6.502326e-02 -5.953781e+00 2.807534e+00)) ((-7.442185e-01 3.054178e+01 1.685354e+01) (-1.242876e-02 9.261404e-01 4.630447e-02))
2.00441e-05   	((7.865203e+00 -4.359729e+02 3.354313e+01) (9.933515e-02 -4.655289e+00 2.694956e+00)) ((-3.125240e-01 1.512834e+01 8.773271e+00) (-1.202194e-02 8.629948e-01 4.597580e-02))
2.02084e-05   	((4.362808e+00 -4.373641e+02 4.943173e+01) (5.662598e-02 -3.472099e+00 2.318223e+00)) ((-9.181123e-01 1.313926e+01 1.275434e+01) (-9.313583e-03 7.733936e-01 2.387580e-02))
2.03963e-05   	((3.831208e+00 -4.187627e+02 6.144498e+01) (2.099720e-02 -2.540970e+00 1.916812e+00)) ((-1.210724e+00 1.258119e+01 1.403815e+01) (-6.475368e-03 6.833567e-01 3.296135e-03))
2.06121e-05   	((3.249024e+00 -3.708937e+02 5.720297e+01) (-1.543644e-03 -1.879042e+00 1.585626e+00)) ((-1.146220e+00 1.132472e+01 1.237309e+01) (-4.436299e-03 6.006639e-01 -8.851996e-03))
2.08564e-05   	((2.721253e+00 -3.217391e+02 4.837086e+01) (-4.979390e-03 -1.423822e+00 1.322096e+00)) ((-9.710831e-01 9.964236e+00 1.017282e+01) (-3.074375e-03 5.273271e-01 -1.459600e-02))
2.11298e-05   	((2.209021e+00 -2.790952e+02 3.943170e+01) (-8.717591e-04 -1.112028e+00 1.114844e+00)) ((-7.943811e-01 8.743550e+00 8.185716e+00) (-2.193459e-03 4.637388e-01 -1.653687e-02))
2.14335e-05   	((1.820234e+00 -2.455215e+02 3.233091e+01) (5.357236e-03 -8.910800e-01 9.518258e-01)) ((-6.523618e-01 7.761849e+00 6.675835e+00) (-1.568352e-03 4.086127e-01 -1.667476e-02))
2.17694e-05   	((1.480808e+00 -2.172611e+02 2.618858e+01) (1.035152e-02 -7.319291e-01 8.186903e-01)) ((-5.302860e-01 6.902908e+00 5.421263e+00) (-1.132694e-03 3.603309e-01 -1.584128e-02))
2.21394e-05   	((1.222253e+00 -1.941046e+02 2.163952e+01) (1.081224e-02 -6.156593e-01 7.061622e-01)) ((-4.388199e-01 6.192413e+00 4.460610e+00) (-8.232965e-04 3.179300e-01 -1.468631e-02))
2.25461e-05   	((1.015458e+00 -1.739992e+02 1.794718e+01) (7.048937e-03 -5.272490e-01 6.108151e-01)) ((-3.622476e-01 5.573541e+00 3.676811e+00) (-5.906989e-04 2.805622e-01 -1.347365e-02))
2.29919e-05   	((8.518786e-01 -1.561316e+02 1.508648e+01) (1.264919e-03 -4.593798e-01 5.301152e-01)) ((-3.015693e-01 5.023046e+00 3.061327e+00) (-4.137660e-04 2.476171e-01 -1.230323e-02))
2.348e-05     	((6.744204e-01 -1.404479e+02 1.254980e+01) (-5.173733e-03 -4.079259e-01 4.608497e-01)) ((-2.515839e-01 4.532001e+00 2.515290e+00) (-2.833898e-04 2.184365e-01 -1.117755e-02))
2.40136e-05   	((5.299225e-01 -1.268445e+02 1.055378e+01) (-1.155636e-02 -3.686428e-01 4.008468e-01)) ((-2.114258e-01 4.099945e+00 2.080435e+00) (-1.877221e-04 1.925493e-01 -1.013961e-02))
2.45961e-05   	((4.231680e-01 -1.148481e+02 8.942337e+00) (-1.699033e-02 -3.377151e-01 3.495035e-01)) ((-1.775694e-01 3.714957e+00 1.740431e+00) (-1.205878e-04 1.695098e-01 -9.170886e-03))
2.5231e-05    	((3.337984e-01 -1.041166e+02 7.561203e+00) (-2.111933e-02 -3.127677e-01 3.046145e-01)) ((-1.487491e-01 3.369573e+00 1.457988e+00) (-7.551899e-05 1.489224e-01 -8.241169e-03))
2.59226e-05   	((2.683348e-01 -9.457330e+01 6.431940e+00) (-2.415383e-02 -2.919224e-01 2.656433e-01)) ((-1.250283e-01 3.059745e+00 1.235957e+00) (-4.416624e-05 1.305536e-01 -7.394581e-03))
2.66754e-05   	((2.088972e-01 -8.581682e+01 5.488973e+00) (-2.615455e-02 -2.744784e-01 2.320311e-01)) ((-1.052700e-01 2.775415e+00 1.039516e+00) (-2.332818e-05 1.142023e-01 -6.541308e-03))
2.74944e-05   	((1.634991e-01 -7.809120e+01 4.663797e+00) (-2.778982e-02 -2.591129e-01 2.030352e-01)) ((-8.814800e-02 2.522086e+00 8.734435e-01) (-5.182241e-06 9.963202e-02 -5.757764e-03))
2.83851e-05   	((1.278000e-01 -7.108914e+01 3.999741e+00) (-2.909547e-02 -2.455383e-01 1.781410e-01)) ((-7.389303e-02 2.291227e+00 7.445576e-01) (7.170004e-06 8.663433e-02 -5.055083e-03))
2.93538e-05   	((8.997637e-02 -6.478999e+01 3.405284e+00) (-2.992780e-02 -2.333476e-01 1.560976e-01)) ((-6.199507e-02 2.082785e+00 6.230785e-01) (1.454712e-05 7.496368e-02 -4.444449e-03))
3.04073e-05   	((6.525426e-02 -5.903958e+01 2.937860e+00) (-3.037432e-02 -2.221195e-01 1.366466e-01)) ((-5.235427e-02 1.891550e+00 5.299800e-01) (1.998711e-05 6.446452e-02 -3.950096e-03))
3.1553e-05    	((4.749039e-02 -5.377045e+01 2.537665e+00) (-3.031354e-02 -2.117426e-01 1.197311e-01)) ((-4.433035e-02 1.715816e+00 4.531183e-01) (2.437302e-05 5.506121e-02 -3.545077e-03))
3.27995e-05   	((2.832889e-02 -4.882922e+01 2.164217e+00) (-2.979506e-02 -2.020688e-01 1.049316e-01)) ((-3.742095e-02 1.551256e+00 3.776996e-01) (2.750956e-05 4.662816e-02 -3.200959e-03))
3.41563e-05   	((1.283727e-02 -4.426066e+01 1.850144e+00) (-2.872995e-02 -1.930566e-01 9.227890e-02)) ((-3.173973e-02 1.398397e+00 3.155418e-01) (2.850775e-05 3.914812e-02 -2.887181e-03))
3.56331e-05   	((1.510646e-03 -4.004319e+01 1.581119e+00) (-2.722760e-02 -1.844523e-01 8.138358e-02)) ((-2.699988e-02 1.256955e+00 2.642561e-01) (2.881682e-05 3.249394e-02 -2.611352e-03))
3.72411e-05   	((-4.514158e-03 -3.609426e+01 1.367168e+00) (-2.542765e-02 -1.761495e-01 7.194020e-02)) ((-2.307693e-02 1.124752e+00 2.254915e-01) (2.831779e-05 2.658331e-02 -2.373688e-03))
3.89933e-05   	((-6.011561e-03 -3.247099e+01 1.203800e+00) (-2.362272e-02 -1.681025e-01 6.359547e-02)) ((-2.003243e-02 1.003399e+00 1.978755e-01) (2.719107e-05 2.131713e-02 -2.159102e-03))
4.09029e-05   	((-6.046408e-03 -2.911580e+01 1.065986e+00) (-2.167162e-02 -1.603848e-01 5.629559e-02)) ((-1.742198e-02 8.912087e-01 1.751957e-01) (2.567337e-05 1.663356e-02 -1.960664e-03))
4.29866e-05   	((-6.683309e-03 -2.597632e+01 9.343580e-01) (-1.970952e-02 -1.527831e-01 4.988561e-02)) ((-1.502358e-02 7.864419e-01 1.538855e-01) (2.422496e-05 1.245670e-02 -1.786257e-03))
4.52623e-05   	((-7.534974e-03 -2.301417e+01 8.113963e-01) (-1.790945e-02 -1.454395e-01 4.435845e-02)) ((-1.294978e-02 6.880897e-01 1.335288e-01) (2.305600e-05 8.746974e-03 -1.629017e-03))
4.77489e-05   	((-6.986710e-03 -2.029349e+01 7.130763e-01) (-1.629194e-02 -1.382740e-01 3.957591e-02)) ((-1.113241e-02 5.978930e-01 1.181870e-01) (2.202018e-05 5.455592e-03 -1.484192e-03))
5.04428e-05   	((-5.772795e-03 -1.777526e+01 6.327036e-01) (-1.476216e-02 -1.313696e-01 3.546694e-02)) ((-9.626182e-03 5.150348e-01 1.065906e-01) (2.116790e-05 2.562375e-03 -1.349291e-03))
5.3363e-05    	((-4.957003e-03 -1.542467e+01 5.532394e-01) (-1.328084e-02 -1.246693e-01 3.191618e-02)) ((-8.207068e-03 4.383584e-01 9.581052e-02) (2.063436e-05 1.495680e-05 -1.223136e-03))
5.65287e-05   	((-2.786376e-03 -1.325788e+01 4.997608e-01) (-1.187896e-02 -1.181152e-01 2.885220e-02)) ((-7.096335e-03 3.682931e-01 9.007055e-02) (1.988811e-05 -2.225851e-03 -1.116822e-03))
5.99597e-05   	((-1.491812e-03 -1.130695e+01 4.483324e-01) (-1.058794e-02 -1.117778e-01 2.622399e-02)) ((-6.085404e-03 3.051369e-01 8.418518e-02) (1.921943e-05 -4.201122e-03 -1.025172e-03))
6.36812e-05   	((-1.339887e-03 -9.475585e+00 4.018553e-01) (-9.377295e-03 -1.056504e-01 2.395496e-02)) ((-5.229769e-03 2.466923e-01 7.965700e-02) (1.835392e-05 -5.937809e-03 -9.402604e-04))
6.76636e-05   	((-1.166742e-03 -7.797749e+00 3.646554e-01) (-8.236611e-03 -9.987036e-02 2.198866e-02)) ((-4.492098e-03 1.940506e-01 7.735129e-02) (1.763586e-05 -7.445621e-03 -8.692506e-04))
7.18626e-05   	((-2.366661e-04 -6.279283e+00 3.413024e-01) (-7.203280e-03 -9.447923e-02 2.030545e-02)) ((-3.941228e-03 1.474632e-01 7.762728e-02) (1.692346e-05 -8.737298e-03 -8.077375e-04))
7.63103e-05   	((7.989366e-04 -4.913114e+00 3.200944e-01) (-6.252642e-03 -8.944370e-02 1.882644e-02)) ((-3.477186e-03 1.062469e-01 7.816696e-02) (1.624387e-05 -9.845123e-03 -7.499954e-04))
8.10475e-05   	((2.503132e-03 -3.668078e+00 3.049162e-01) (-5.359201e-03 -8.466812e-02 1.751788e-02)) ((-3.063396e-03 6.942316e-02 8.011804e-02) (1.583215e-05 -1.079667e-02 -6.988164e-04))
8.61255e-05   	((4.431443e-03 -2.536134e+00 2.879240e-01) (-4.524548e-03 -8.013222e-02 1.637092e-02)) ((-2.650658e-03 3.660793e-02 8.299025e-02) (1.547994e-05 -1.161088e-02 -6.535814e-04))
9.14323e-05   	((7.524930e-03 -1.524827e+00 2.872576e-01) (-3.767112e-03 -7.587011e-02 1.539480e-02)) ((-2.385814e-03 8.168407e-03 8.809070e-02) (1.518766e-05 -1.228381e-02 -6.112242e-04))
9.68013e-05   	((1.083675e-02 -6.039642e-01 2.867457e-01) (-3.106436e-03 -7.204599e-02 1.458026e-02)) ((-2.220067e-03 -1.666115e-02 9.163103e-02) (1.497715e-05 -1.282184e-02 -5.718161e-04))
0.000102256   	((1.387529e-02 2.118168e-01 2.813792e-01) (-2.508330e-03 -6.853575e-02 1.387756e-02)) ((-2.073842e-03 -3.780272e-02 9.293671e-02) (1.484502e-05 -1.325214e-02 -5.348674e-04))
0.000107821   	((1.623147e-02 9.507086e-01 2.673280e-01) (-1.962717e-03 -6.527291e-02 1.326422e-02)) ((-1.888055e-03 -5.646172e-02 9.131757e-02) (1.458796e-05 -1.359318e-02 -5.009930e-04))
0.000113488   	((1.816621e-02 1.627077e+00 2.532698e-01) (-1.465324e-03 -6.224432e-02 1.271813e-02)) ((-1.751879e-03 -7.293927e-02 8.823588e-02) (1.437115e-05 -1.385700e-02 -4.702586e-04))
0.000119244   	((1.871562e-02 2.254265e+00 2.344637e-01) (-9.992380e-04 -5.943543e-02 1.224693e-02)) ((-1.612049e-03 -8.765186e-02 8.233512e-02) (1.422541e-05 -1.405427e-02 -4.431057e-04))
0.0001251     	((1.834298e-02 2.820771e+00 2.140130e-01) (-5.656083e-04 -5.681070e-02 1.182481e-02)) ((-1.477552e-03 -1.004128e-01 7.522033e-02) (1.412018e-05 -1.419460e-02 -4.175024e-04))
0.000131107   	((1.719610e-02 3.357690e+00 1.914233e-01) (-1.538855e-04 -5.432490e-02 1.145766e-02)) ((-1.323762e-03 -1.121515e-01 6.762176e-02) (1.411428e-05 -1.428679e-02 -3.933347e-04))
0.000137341   	((1.580525e-02 3.854363e+00 1.707605e-01) (2.339358e-04 -5.194478e-02 1.110697e-02)) ((-1.196175e-03 -1.226693e-01 6.067030e-02) (1.412092e-05 -1.433723e-02 -3.709137e-04))
0.000143859   	((1.428034e-02 4.308253e+00 1.489180e-01) (5.944786e-04 -4.966850e-02 1.076215e-02)) ((-1.034415e-03 -1.318841e-01 5.424498e-02) (1.409839e-05 -1.434850e-02 -3.526709e-04))
0.00015071    	((1.266834e-02 4.724370e+00 1.258659e-01) (9.165468e-04 -4.748238e-02 1.040526e-02)) ((-8.360051e-04 -1.399401e-01 4.833151e-02) (1.402610e-05 -1.432265e-02 -3.357443e-04))
0.000157953   	((1.100641e-02 5.104245e+00 1.040177e-01) (1.201947e-03 -4.537005e-02 1.002404e-02)) ((-6.602156e-04 -1.468776e-01 4.284021e-02) (1.395936e-05 -1.426111e-02 -3.206822e-04))
0.000165641   	((9.013452e-03 5.462805e+00 8.017065e-02) (1.449736e-03 -4.333119e-02 9.623982e-03)) ((-4.925484e-04 -1.530996e-01 3.773792e-02) (1.399574e-05 -1.416332e-02 -3.054656e-04))
0.000173663   	((7.449538e-03 5.801392e+00 5.859718e-02) (1.646316e-03 -4.140292e-02 9.214726e-03)) ((-3.188830e-04 -1.586833e-01 3.327711e-02) (1.405909e-05 -1.403232e-02 -2.900900e-04))
0.000181447   	((6.671673e-03 6.139234e+00 4.091316e-02) (1.790184e-03 -3.972836e-02 8.824297e-03)) ((-1.481151e-04 -1.642565e-01 2.881554e-02) (1.411854e-05 -1.387942e-02 -2.763838e-04))
0.000189021   	((6.459022e-03 6.448723e+00 2.645924e-02) (1.902357e-03 -3.824922e-02 8.454041e-03)) ((2.415385e-05 -1.690204e-01 2.474022e-02) (1.418419e-05 -1.371099e-02 -2.628117e-04))
0.000196414   	((6.530763e-03 6.719622e+00 1.334254e-02) (1.989072e-03 -3.692698e-02 8.094166e-03)) ((1.906838e-04 -1.728384e-01 2.133847e-02) (1.430379e-05 -1.352877e-02 -2.495048e-04))
0.00020365    	((7.043239e-03 6.959233e+00 3.796759e-03) (2.055852e-03 -3.573179e-02 7.748870e-03)) ((3.351486e-04 -1.759445e-01 1.865499e-02) (1.441825e-05 -1.333546e-02 -2.374675e-04))
0.000210755   	((7.664597e-03 7.162219e+00 -3.862185e-03) (2.106236e-03 -3.463600e-02 7.406352e-03)) ((4.681658e-04 -1.782321e-01 1.686033e-02) (1.457695e-05 -1.313399e-02 -2.266338e-04))
0.000217746   	((8.472618e-03 7.341074e+00 -7.998137e-03) (2.139379e-03 -3.362626e-02 7.064621e-03)) ((5.745607e-04 -1.800592e-01 1.610909e-02) (1.471736e-05 -1.292693e-02 -2.168342e-04))
0.000224641   	((9.103032e-03 7.498539e+00 -1.424984e-02) (2.157861e-03 -3.269758e-02 6.725428e-03)) ((6.850860e-04 -1.814847e-01 1.541528e-02) (1.482126e-05 -1.271877e-02 -2.078143e-04))
0.000231452   	((9.832284e-03 7.641296e+00 -1.804455e-02) (2.162410e-03 -3.184041e-02 6.392631e-03)) ((7.804130e-04 -1.826716e-01 1.524324e-02) (1.490379e-05 -1.250880e-02 -1.992605e-04))
0.000238193   	((1.042146e-02 7.770205e+00 -2.213176e-02) (2.156524e-03 -3.104544e-02 6.068242e-03)) ((8.692351e-04 -1.836295e-01 1.501482e-02) (1.496502e-05 -1.229785e-02 -1.912581e-04))
0.000244876   	((1.090159e-02 7.886458e+00 -2.602480e-02) (2.140387e-03 -3.030517e-02 5.753491e-03)) ((9.411390e-04 -1.843209e-01 1.476559e-02) (1.498443e-05 -1.208610e-02 -1.837877e-04))
0.000251511   	((1.145005e-02 7.989074e+00 -2.835612e-02) (2.118461e-03 -2.961201e-02 5.449384e-03)) ((9.982362e-04 -1.847329e-01 1.468572e-02) (1.500843e-05 -1.187384e-02 -1.769747e-04))
0.000258105   	((1.185714e-02 8.085958e+00 -3.037746e-02) (2.092802e-03 -2.895593e-02 5.158051e-03)) ((1.050896e-03 -1.850771e-01 1.459112e-02) (1.502093e-05 -1.166148e-02 -1.707823e-04))
0.000264668   	((1.231340e-02 8.173691e+00 -3.244010e-02) (2.064982e-03 -2.833538e-02 4.880119e-03)) ((1.103821e-03 -1.852682e-01 1.449187e-02) (1.502642e-05 -1.144950e-02 -1.650276e-04))
0.000271205   	((1.294317e-02 8.253337e+00 -3.307717e-02) (2.034683e-03 -2.774481e-02 4.616854e-03)) ((1.147114e-03 -1.853077e-01 1.459271e-02) (1.501489e-05 -1.123845e-02 -1.595133e-04))
0.000277721   	((1.339340e-02 8.324454e+00 -3.348528e-02) (2.000998e-03 -2.718468e-02 4.367362e-03)) ((1.185805e-03 -1.851978e-01 1.464862e-02) (1.498374e-05 -1.102866e-02 -1.539584e-04))
0.000284221   	((1.388733e-02 8.389786e+00 -3.457127e-02) (1.964002e-03 -2.664821e-02 4.130692e-03)) ((1.227242e-03 -1.850095e-01 1.457793e-02) (1.494242e-05 -1.082024e-02 -1.485049e-04))
0.000290709   	((1.427593e-02 8.450680e+00 -3.365348e-02) (1.923291e-03 -2.613539e-02 3.910906e-03)) ((1.249446e-03 -1.847725e-01 1.463161e-02) (1.489583e-05 -1.061350e-02 -1.430307e-04))
0.000297188   	((1.472679e-02 8.506751e+00 -3.319325e-02) (1.879867e-03 -2.564377e-02 3.707402e-03)) ((1.268736e-03 -1.844835e-01 1.462714e-02) (1.484708e-05 -1.040876e-02 -1.376106e-04))
0.000303661   	((1.521599e-02 8.557447e+00 -3.248850e-02) (1.833222e-03 -2.517077e-02 3.518609e-03)) ((1.285804e-03 -1.841158e-01 1.480070e-02) (1.478787e-05 -1.020603e-02 -1.321464e-04))
0.000310131   	((1.571359e-02 8.604479e+00 -3.143622e-02) (1.783177e-03 -2.471321e-02 3.340984e-03)) ((1.300515e-03 -1.837316e-01 1.493530e-02) (1.471055e-05 -1.000543e-02 -1.265625e-04))
0.0003166     	((1.623588e-02 8.646548e+00 -2.892293e-02) (1.731264e-03 -2.427035e-02 3.172369e-03)) ((1.305029e-03 -1.832993e-01 1.523406e-02) (1.461249e-05 -9.807137e-03 -1.209110e-04))
0.000323069   	((1.678556e-02 8.685246e+00 -2.535568e-02) (1.678222e-03 -2.383844e-02 3.013869e-03)) ((1.294834e-03 -1.828456e-01 1.566471e-02) (1.451102e-05 -9.611203e-03 -1.152830e-04))
0.00032954    	((1.726363e-02 8.720314e+00 -2.333575e-02) (1.626032e-03 -2.341738e-02 2.861903e-03)) ((1.293900e-03 -1.823607e-01 1.601338e-02) (1.439929e-05 -9.417575e-03 -1.096531e-04))
0.000336014   	((1.776523e-02 8.752744e+00 -2.007462e-02) (1.575121e-03 -2.300740e-02 2.715054e-03)) ((1.281960e-03 -1.818753e-01 1.645939e-02) (1.426934e-05 -9.226223e-03 -1.040977e-04))
0.000342492   	((1.832749e-02 8.785097e+00 -1.723381e-02) (1.526133e-03 -2.260692e-02 2.573737e-03)) ((1.269695e-03 -1.814564e-01 1.685162e-02) (1.411848e-05 -9.037411e-03 -9.872796e-05))
0.000348973   	((1.878190e-02 8.811688e+00 -1.340865e-02) (1.479576e-03 -2.221466e-02 2.437266e-03)) ((1.247034e-03 -1.809631e-01 1.726556e-02) (1.394927e-05 -8.851352e-03 -9.351377e-05))
0.00035546    	((1.912635e-02 8.836385e+00 -1.095863e-02) (1.434786e-03 -2.183155e-02 2.306567e-03)) ((1.231584e-03 -1.804995e-01 1.759116e-02) (1.376359e-05 -8.668214e-03 -8.842150e-05))
0.000361952   	((1.955958e-02 8.860153e+00 -7.388256e-03) (1.392000e-03 -2.145654e-02 2.183056e-03)) ((1.209260e-03 -1.800591e-01 1.799042e-02) (1.356351e-05 -8.488001e-03 -8.345405e-05))
0.000368449   	((2.003412e-02 8.881600e+00 -4.005871e-03) (1.352010e-03 -2.108847e-02 2.066720e-03)) ((1.186620e-03 -1.796152e-01 1.844559e-02) (1.334201e-05 -8.310729e-03 -7.848198e-05))
0.000374951   	((2.035698e-02 8.899909e+00 -7.625191e-04) (1.314200e-03 -2.072782e-02 1.959007e-03)) ((1.161485e-03 -1.791533e-01 1.887189e-02) (1.309990e-05 -8.136491e-03 -7.355829e-05))
0.000381263   	((2.066185e-02 8.921571e+00 2.138405e-03) (1.278922e-03 -2.039482e-02 1.861904e-03)) ((1.138813e-03 -1.788004e-01 1.923255e-02) (1.285149e-05 -7.970372e-03 -6.905753e-05))
0.0003874     	((2.097731e-02 8.937482e+00 5.546102e-03) (1.247011e-03 -2.008058e-02 1.775778e-03)) ((1.110550e-03 -1.783918e-01 1.954547e-02) (1.260535e-05 -7.811773e-03 -6.495640e-05))
0.000393383   	((2.112081e-02 8.951556e+00 7.247771e-03) (1.218340e-03 -1.978150e-02 1.699339e-03)) ((1.089296e-03 -1.780252e-01 1.971556e-02) (1.236092e-05 -7.659876e-03 -6.114059e-05))
0.000399272   	((2.130334e-02 8.964157e+00 9.612151e-03) (1.192122e-03 -1.948943e-02 1.631461e-03)) ((1.066138e-03 -1.777026e-01 1.988648e-02) (1.212216e-05 -7.513168e-03 -5.756933e-05))
0.000405099   	((2.142548e-02 8.975259e+00 1.204604e-02) (1.168629e-03 -1.920297e-02 1.571747e-03)) ((1.040255e-03 -1.773801e-01 2.003698e-02) (1.188360e-05 -7.370767e-03 -5.418756e-05))
0.000410884   	((2.149350e-02 8.984731e+00 1.407398e-02) (1.147331e-03 -1.892093e-02 1.519476e-03)) ((1.020588e-03 -1.770662e-01 2.011484e-02) (1.164292e-05 -7.232122e-03 -5.099349e-05))
0.000416634   	((2.159939e-02 8.994156e+00 1.622022e-02) (1.128189e-03 -1.864401e-02 1.473867e-03)) ((9.985198e-04 -1.767947e-01 2.022649e-02) (1.140113e-05 -7.097039e-03 -4.797349e-05))
0.000422349   	((2.169266e-02 9.003114e+00 1.771277e-02) (1.111328e-03 -1.837264e-02 1.433900e-03)) ((9.812214e-04 -1.765383e-01 2.023411e-02) (1.115633e-05 -6.965381e-03 -4.519214e-05))
0.000428031   	((2.171149e-02 9.009552e+00 1.959489e-02) (1.096562e-03 -1.810711e-02 1.399702e-03)) ((9.597133e-04 -1.762641e-01 2.027924e-02) (1.091541e-05 -6.837107e-03 -4.261322e-05))
0.00043368    	((2.172839e-02 9.017263e+00 2.182094e-02) (1.083099e-03 -1.784658e-02 1.371006e-03)) ((9.331850e-04 -1.760454e-01 2.033163e-02) (1.068276e-05 -6.712145e-03 -4.023205e-05))
0.000439295   	((2.170957e-02 9.024720e+00 2.361491e-02) (1.070815e-03 -1.759065e-02 1.347461e-03)) ((9.108355e-04 -1.758572e-01 2.030475e-02) (1.045507e-05 -6.590410e-03 -3.812206e-05))
0.000444877   	((2.168934e-02 9.030415e+00 2.512243e-02) (1.059404e-03 -1.733920e-02 1.328061e-03)) ((8.890671e-04 -1.756601e-01 2.026594e-02) (1.023391e-05 -6.471882e-03 -3.630999e-05))
0.000450426   	((2.156794e-02 9.035934e+00 2.614441e-02) (1.048668e-03 -1.709201e-02 1.312702e-03)) ((8.693040e-04 -1.754770e-01 2.014888e-02) (1.002074e-05 -6.356438e-03 -3.473264e-05))
0.000455946   	((2.148096e-02 9.041403e+00 2.715834e-02) (1.038520e-03 -1.684855e-02 1.301131e-03)) ((8.493518e-04 -1.753213e-01 2.002372e-02) (9.818629e-06 -6.243960e-03 -3.336714e-05))
0.00046144    	((2.137096e-02 9.045869e+00 2.824708e-02) (1.029023e-03 -1.660876e-02 1.293237e-03)) ((8.305334e-04 -1.751704e-01 1.990170e-02) (9.623185e-06 -6.134337e-03 -3.222582e-05))
0.000466913   	((2.124217e-02 9.049927e+00 2.980338e-02) (1.020237e-03 -1.637224e-02 1.287933e-03)) ((8.074956e-04 -1.750334e-01 1.981030e-02) (9.431673e-06 -6.027383e-03 -3.122851e-05))
0.00047237    	((2.107408e-02 9.053786e+00 3.079889e-02) (1.012218e-03 -1.613948e-02 1.284791e-03)) ((7.874046e-04 -1.749153e-01 1.962871e-02) (9.242740e-06 -5.922891e-03 -3.037783e-05))
0.000477819   	((2.092121e-02 9.057870e+00 3.154316e-02) (1.004786e-03 -1.591030e-02 1.283082e-03)) ((7.693735e-04 -1.748231e-01 1.942129e-02) (9.058922e-06 -5.820764e-03 -2.963397e-05))
0.000483266   	((2.071368e-02 9.061132e+00 3.214049e-02) (9.974378e-04 -1.568436e-02 1.282297e-03)) ((7.492425e-04 -1.747325e-01 1.920176e-02) (8.876879e-06 -5.720894e-03 -2.895339e-05))
0.00048872    	((2.053840e-02 9.064194e+00 3.331531e-02) (9.903561e-04 -1.546072e-02 1.283073e-03)) ((7.259846e-04 -1.746562e-01 1.899609e-02) (8.696437e-06 -5.623158e-03 -2.835973e-05))
0.000494187   	((2.032380e-02 9.066443e+00 3.403237e-02) (9.827292e-04 -1.523977e-02 1.284250e-03)) ((7.059327e-04 -1.745799e-01 1.873918e-02) (8.516763e-06 -5.527318e-03 -2.784737e-05))
0.000499675   	((2.010235e-02 9.068223e+00 3.452024e-02) (9.745654e-04 -1.502110e-02 1.285815e-03)) ((6.870642e-04 -1.745091e-01 1.847741e-02) (8.338337e-06 -5.433324e-03 -2.739014e-05))
0.000505187   	((1.987151e-02 9.070114e+00 3.516904e-02) (9.659559e-04 -1.480414e-02 1.287592e-03)) ((6.688259e-04 -1.744527e-01 1.820882e-02) (8.164685e-06 -5.341030e-03 -2.700648e-05))
0.000510728   	((1.958920e-02 9.072484e+00 3.584423e-02) (9.569810e-04 -1.458910e-02 1.289414e-03)) ((6.493822e-04 -1.744342e-01 1.794951e-02) (7.996841e-06 -5.250377e-03 -2.672247e-05))
0.000516302   	((1.934547e-02 9.073074e+00 3.651996e-02) (9.472711e-04 -1.437599e-02 1.291316e-03)) ((6.298393e-04 -1.743814e-01 1.770298e-02) (7.832317e-06 -5.161298e-03 -2.650104e-05))
0.000521912   	((1.912182e-02 9.074735e+00 3.731403e-02) (9.369960e-04 -1.416511e-02 1.292786e-03)) ((6.100460e-04 -1.743703e-01 1.746186e-02) (7.673838e-06 -5.073843e-03 -2.635152e-05))
0.000527558   	((1.886705e-02 9.075078e+00 3.772673e-02) (9.264619e-04 -1.395645e-02 1.294354e-03)) ((5.936455e-04 -1.743405e-01 1.718829e-02) (7.515567e-06 -4.987976e-03 -2.624043e-05))
0.000533244   	((1.856791e-02 9.075609e+00 3.783996e-02) (9.157498e-04 -1.374970e-02 1.295573e-03)) ((5.781229e-04 -1.743300e-01 1.687143e-02) (7.360526e-06 -4.903687e-03 -2.618750e-05))
0.000538969   	((1.829470e-02 9.076254e+00 3.817955e-02) (9.048510e-04 -1.354511e-02 1.296304e-03)) ((5.615159e-04 -1.743340e-01 1.658340e-02) (7.209160e-06 -4.820849e-03 -2.618127e-05))
0.000544734   	((1.799809e-02 9.076769e+00 3.845787e-02) (8.936679e-04 -1.334296e-02 1.296785e-03)) ((5.462042e-04 -1.743468e-01 1.626784e-02) (7.061276e-06 -4.739438e-03 -2.620099e-05))
0.000550539   	((1.769993e-02 9.077156e+00 3.893061e-02) (8.821706e-04 -1.314330e-02 1.296540e-03)) ((5.304894e-04 -1.743670e-01 1.596751e-02) (6.917227e-06 -4.659452e-03 -2.624635e-05))
0.000556383   	((1.740097e-02 9.077371e+00 3.897528e-02) (8.698042e-04 -1.294628e-02 1.295576e-03)) ((5.166555e-04 -1.743971e-01 1.564125e-02) (6.777078e-06 -4.581072e-03 -2.635017e-05))
0.000562266   	((1.708201e-02 9.076968e+00 3.874618e-02) (8.568914e-04 -1.275182e-02 1.294226e-03)) ((5.058202e-04 -1.744205e-01 1.531341e-02) (6.641229e-06 -4.504170e-03 -2.649216e-05))
0.000568186   	((1.679122e-02 9.076455e+00 3.877168e-02) (8.431911e-04 -1.255988e-02 1.292606e-03)) ((4.941813e-04 -1.744516e-01 1.501158e-02) (6.511064e-06 -4.428732e-03 -2.665103e-05))
0.000574141   	((1.652706e-02 9.075652e+00 3.868906e-02) (8.286639e-04 -1.237058e-02 1.291091e-03)) ((4.822515e-04 -1.744869e-01 1.469582e-02) (6.385039e-06 -4.354716e-03 -2.686006e-05))
0.000580129   	((1.623978e-02 9.075109e+00 3.855582e-02) (8.133056e-04 -1.218359e-02 1.289576e-03)) ((4.715165e-04 -1.745354e-01 1.439949e-02) (6.261727e-06 -4.282135e-03 -2.710208e-05))
0.00058615    	((1.595529e-02 9.074049e+00 3.857348e-02) (7.971241e-04 -1.199922e-02 1.287734e-03)) ((4.593425e-04 -1.745814e-01 1.410870e-02) (6.140847e-06 -4.211012e-03 -2.735387e-05))
0.000592201   	((1.564995e-02 9.072457e+00 3.840830e-02) (7.799558e-04 -1.181735e-02 1.284958e-03)) ((4.496395e-04 -1.746260e-01 1.380960e-02) (6.021930e-06 -4.141341e-03 -2.757545e-05))
0.000598282   	((1.537802e-02 9.071391e+00 3.826839e-02) (7.618831e-04 -1.163773e-02 1.281923e-03)) ((4.394960e-04 -1.746868e-01 1.352535e-02) (5.900371e-06 -4.073065e-03 -2.775866e-05))
0.00060439    	((1.507892e-02 9.069687e+00 3.809771e-02) (7.429540e-04 -1.146016e-02 1.279170e-03)) ((4.289321e-04 -1.747434e-01 1.324054e-02) (5.779941e-06 -4.006227e-03 -2.790017e-05))
0.000610526   	((1.483201e-02 9.067541e+00 3.816967e-02) (7.235209e-04 -1.128495e-02 1.275303e-03)) ((4.183000e-04 -1.747959e-01 1.298182e-02) (5.658757e-06 -3.940771e-03 -2.799616e-05))
0.000616688   	((1.463529e-02 9.066276e+00 3.823315e-02) (7.038049e-04 -1.111235e-02 1.271328e-03)) ((4.078614e-04 -1.748775e-01 1.276121e-02) (5.538301e-06 -3.876664e-03 -2.806385e-05))
0.000622874   	((1.441458e-02 9.064014e+00 3.839563e-02) (6.836074e-04 -1.094202e-02 1.265837e-03)) ((3.962704e-04 -1.749383e-01 1.254559e-02) (5.421487e-06 -3.813925e-03 -2.812412e-05))
0.000629082   	((1.418280e-02 9.062456e+00 3.812657e-02) (6.633945e-04 -1.077381e-02 1.259146e-03)) ((3.868332e-04 -1.750198e-01 1.231603e-02) (5.305625e-06 -3.752539e-03 -2.815989e-05))
0.000635311   	((1.397260e-02 9.059338e+00 3.811717e-02) (6.433355e-04 -1.060787e-02 1.250846e-03)) ((3.769347e-04 -1.750735e-01 1.212236e-02) (5.189192e-06 -3.692536e-03 -2.818994e-05))
0.000641558   	((1.375414e-02 9.056991e+00 3.818520e-02) (6.235358e-04 -1.044401e-02 1.241693e-03)) ((3.661195e-04 -1.751527e-01 1.193960e-02) (5.069973e-06 -3.633839e-03 -2.820224e-05))
0.000647825   	((1.349288e-02 9.054454e+00 3.779369e-02) (6.041781e-04 -1.028228e-02 1.231173e-03)) ((3.580716e-04 -1.752344e-01 1.172916e-02) (4.947879e-06 -3.576473e-03 -2.819197e-05))
0.000654111   	((1.327510e-02 9.051082e+00 3.783046e-02) (5.852837e-04 -1.012238e-02 1.219001e-03)) ((3.467288e-04 -1.753014e-01 1.157002e-02) (4.823600e-06 -3.520299e-03 -2.812013e-05))
0.000660417   	((1.308943e-02 9.047459e+00 3.785629e-02) (5.667247e-04 -9.963894e-03 1.205088e-03)) ((3.359257e-04 -1.753660e-01 1.140445e-02) (4.700559e-06 -3.465341e-03 -2.801012e-05))
0.000666743   	((1.293111e-02 9.044385e+00 3.804888e-02) (5.484195e-04 -9.807394e-03 1.189968e-03)) ((3.254497e-04 -1.754498e-01 1.127459e-02) (4.578000e-06 -3.411633e-03 -2.786220e-05))
0.000673094   	((1.277986e-02 9.041128e+00 3.821086e-02) (5.307756e-04 -9.652578e-03 1.173269e-03)) ((3.152298e-04 -1.755383e-01 1.114332e-02) (4.457070e-06 -3.359129e-03 -2.767105e-05))
0.00067947    	((1.260044e-02 9.036609e+00 3.813552e-02) (5.137449e-04 -9.499284e-03 1.155492e-03)) ((3.061692e-04 -1.755970e-01 1.101751e-02) (4.336829e-06 -3.307705e-03 -2.746890e-05))
0.000685874   	((1.245243e-02 9.033166e+00 3.829393e-02) (4.972908e-04 -9.347419e-03 1.136888e-03)) ((2.971312e-04 -1.756874e-01 1.089584e-02) (4.217226e-06 -3.257378e-03 -2.723836e-05))
0.000692306   	((1.230946e-02 9.029481e+00 3.857405e-02) (4.812585e-04 -9.197052e-03 1.117261e-03)) ((2.865963e-04 -1.757802e-01 1.077145e-02) (4.099984e-06 -3.208164e-03 -2.699142e-05))
0.000698765   	((1.217001e-02 9.025817e+00 3.854469e-02) (4.654067e-04 -9.048277e-03 1.096153e-03)) ((2.786864e-04 -1.758801e-01 1.063020e-02) (3.984658e-06 -3.160057e-03 -2.670875e-05))
0.000705253   	((1.200295e-02 9.021897e+00 3.830696e-02) (4.498641e-04 -8.901042e-03 1.074463e-03)) ((2.734043e-04 -1.759749e-01 1.047370e-02) (3.869268e-06 -3.113055e-03 -2.638886e-05))
0.000711767   	((1.187574e-02 9.017622e+00 3.814319e-02) (4.346815e-04 -8.755409e-03 1.051816e-03)) ((2.677961e-04 -1.760621e-01 1.034372e-02) (3.753431e-06 -3.067100e-03 -2.602177e-05))
0.000718308   	((1.173012e-02 9.013704e+00 3.813549e-02) (4.198706e-04 -8.610970e-03 1.028329e-03)) ((2.616005e-04 -1.761658e-01 1.020247e-02) (3.638797e-06 -3.022153e-03 -2.566210e-05))
0.000724874   	((1.154042e-02 9.010110e+00 3.803685e-02) (4.052506e-04 -8.467695e-03 1.003816e-03)) ((2.541308e-04 -1.762820e-01 1.005019e-02) (3.526153e-06 -2.978229e-03 -2.527896e-05))
0.000731466   	((1.141381e-02 9.005484e+00 3.788517e-02) (3.908908e-04 -8.325515e-03 9.785675e-04)) ((2.477225e-04 -1.763746e-01 9.898479e-03) (3.413774e-06 -2.935293e-03 -2.489264e-05))
0.000738082   	((1.128326e-02 9.000587e+00 3.787644e-02) (3.769352e-04 -8.184563e-03 9.527658e-04)) ((2.415677e-04 -1.764623e-01 9.773782e-03) (3.301268e-06 -2.893342e-03 -2.445766e-05))
0.000744721   	((1.111083e-02 8.995629e+00 3.766409e-02) (3.634795e-04 -8.045056e-03 9.266030e-04)) ((2.363551e-04 -1.765499e-01 9.615244e-03) (3.189694e-06 -2.852342e-03 -2.402234e-05))
0.000751382   	((1.095532e-02 8.990850e+00 3.734297e-02) (3.502345e-04 -7.906991e-03 8.999769e-04)) ((2.306690e-04 -1.766454e-01 9.463075e-03) (3.082347e-06 -2.812327e-03 -2.359005e-05))