/*--------------------------------*- C++ -*----------------------------------*\
  =========                 |
  \\      /  F ield         | OpenFOAM: The Open Source CFD Toolbox
   \\    /   O peration     | Website:  https://openfoam.org
    \\  /    A nd           | Version:  13
     \\/     M anipulation  |
\*---------------------------------------------------------------------------*/
FoamFile
{
    format      ascii;
    class       volVectorField;
    location    "0.0951197";
    object      wallShearStress;
}
// * * * * * * * * * * * * * * * * * * * * * * * * * * * * * * * * * * * * * //

dimensions      [0 2 -2 0 0 0 0];

internalField   uniform (0 0 0);

boundaryField
{
    walls
    {
        type            calculated;
        value           uniform (0 0 0);
    }
    inlet
    {
        type            calculated;
        value           uniform (0 0 0);
    }
    outlet
    {
        type            calculated;
        value           uniform (0 0 0);
    }
    innerCylinder
    {
        type            calculated;
        value           uniform (0 0 0);
    }
    innerCylinder_slave
    {
        type            calculated;
        value           uniform (0 0 0);
    }
    propellerTip
    {
        type            calculated;
        value           nonuniform List<vector> 
9073
(
(0.0947818 0.0171365 0.0663881)
(0.262209 0.0244888 -0.0614548)
(-0.171153 0.121479 0.103891)
(0.182221 0.13722 -0.109269)
(-0.27186 0.0274342 0.0628353)
(0.222521 0.295993 -0.0895023)
(-0.0106163 0.0496306 -0.0704426)
(-0.143078 0.0706663 0.0778369)
(0.0138116 0.0788893 0.0498315)
(-0.0209848 0.083389 -0.04981)
(0.0228748 0.00445372 -0.0217494)
(-0.225103 0.302231 0.0890228)
(0.0543236 -0.0221502 0.0687574)
(0.26716 0.151001 -0.0370992)
(0.275817 0.123841 0.0330566)
(-0.264707 0.153149 0.0376853)
(0.194307 0.151827 -0.145791)
(0.233226 0.217015 -0.217807)
(-0.138252 0.0492757 0.0833848)
(0.138728 0.0500762 -0.0795996)
(-0.238441 -0.171025 -0.0126581)
(-0.088252 -0.00145317 -0.101702)
(0.0311397 0.011247 -0.107812)
(0.033236 -0.026778 -0.114298)
(0.0278329 -0.0203202 -0.0452054)
(0.021588 0.00155537 -0.127551)
(0.01702 -0.0914432 -0.0700226)
(0.0345226 -0.0122424 -0.040543)
(0.034556 -0.0228016 -0.11453)
(0.00435243 -0.0120186 -0.127332)
(-0.00137927 -0.0137718 -0.136173)
(-0.0651184 -0.00126225 0.00736921)
(-0.101763 0.0336042 0.0971365)
(-0.0187912 -0.00856826 0.00348932)
(0.564403 -0.370887 0.0137098)
(0.088669 -0.00205839 0.10202)
(-0.102111 0.0150598 0.10446)
(-0.165329 0.045555 0.0989336)
(0.390149 0.028341 -0.0451778)
(1.40026 -3.03101 0.4032)
(-0.609411 -1.01362 0.0486205)
(0.139082 -0.0626497 0.0895638)
(2.93435 -0.574133 0.121977)
(0.202143 -0.174827 -0.00823855)
(-0.010255 -0.011819 0.000317891)
(0.0650308 -0.00133115 -0.00797583)
(-0.025709 -0.0256352 0.105296)
(-0.00142648 -0.0136666 0.130134)
(0.0039167 -0.008339 0.221878)
(-0.00146348 -0.00986823 0.146723)
(-0.026167 0.0348926 0.110175)
(-0.0446071 -0.0675668 0.0840312)
(-0.0327865 -0.0310576 0.0992929)
(-0.0215873 -0.0312333 0.0729121)
(-0.0123665 -0.0579533 0.0496879)
(-0.0579955 0.00710186 0.0658214)
(-0.0669656 0.138181 0.103789)
(-0.432224 0.0425412 0.026472)
(-1.51897 -3.39148 0.24398)
(0.650126 -1.01843 -0.0702088)
(-0.249008 -0.0242822 -0.0602864)
(-2.73828 -2.60345 -0.138058)
(0.144763 0.018989 -0.0358702)
(0.110147 0.140673 -0.109053)
(0.103085 0.0325917 -0.10442)
(0.101352 0.0697395 -0.118007)
(0.0969703 0.0123298 -0.102395)
(0.164359 0.0484161 -0.0982364)
(0.0503871 -0.0310683 -0.110399)
(0.045215 -0.0403218 -0.0845206)
(0.0545724 -0.0188564 -0.110274)
(0.0066274 -0.0387483 -0.119628)
(-0.0103949 0.00939653 -0.141178)
(-0.0128256 0.00774763 -0.147144)
(-0.0153422 0.0473936 -0.0293556)
(-0.00133291 -0.00484554 0.00033441)
(0.0166431 -0.00689985 0.00505539)
(-0.0644013 -0.00596189 0.00497113)
(-0.047376 0.0175686 0.0168304)
(-0.00535173 -0.00482462 -0.000663049)
(-0.0660336 -0.0056436 0.00216581)
(-0.0259514 -0.00407374 -0.0012271)
(0.0156936 0.0466955 0.0287154)
(0.00148702 -0.00484476 -0.000844301)
(0.0641609 -0.00597401 -0.00560583)
(-0.016802 -0.00676663 -0.00564294)
(0.0206664 0.00754913 0.144555)
(0.00390965 -0.0123667 0.10576)
(-0.0504586 -0.0241866 0.104033)
(-0.0144675 -0.0214316 0.122074)
(-0.0594249 -0.0218608 0.102451)
(-0.0432527 -0.053305 0.0913599)
(-0.526226 -0.0561699 -0.305626)
(-0.0553825 0.0189474 -0.0449108)
(0.00670272 -0.0353359 -0.126722)
(0.0099301 -0.0121387 -0.000464427)
(-0.0673734 -0.00163417 0.00434972)
(-0.101965 0.009054 0.10111)
(-0.101272 0.133694 0.105785)
(0.450216 0.0793049 0.266479)
(0.241857 0.0569189 0.176283)
(-0.00362327 -0.0132216 0.102634)
(-0.0176376 -0.0147038 0.127912)
(-0.00753481 -0.0278894 0.133058)
(-0.131493 0.0368767 -0.142509)
(3.1892 -1.75254 -0.275058)
(2.67811 -1.77305 -0.261275)
(-1.0724 -1.91327 -0.327481)
(1.32938 -1.14615 -0.160446)
(1.31725 -1.6267 -0.0870869)
(2.95268 -2.7128 0.266556)
(1.18157 -2.58184 0.173413)
(-0.435847 -0.366245 -0.0733798)
(-0.2148 -0.195651 -0.00360199)
(-0.163501 -0.1452 0.249405)
(-0.234128 -0.00419679 0.431804)
(-0.0711526 0.0466107 -0.101725)
(-0.088842 -0.0412736 -0.0730296)
(0.100374 -0.0209943 0.0792326)
(0.170936 -0.144112 -0.247833)
(0.226914 -0.00479134 -0.454124)
(0.084492 0.0404795 0.0994245)
(0.102867 -0.0613498 0.0436074)
(0.133624 -0.0587821 -0.0489579)
(0.135244 -0.0346739 -0.110989)
(0.146896 -0.067475 -0.0767706)
(0.138873 -0.146591 -0.000133226)
(0.584906 -0.411989 0.0203757)
(-0.0239307 0.0253181 -0.105413)
(-3.18572 -1.75206 0.274854)
(-2.67507 -1.77258 0.261132)
(1.07132 -1.91205 0.334063)
(-1.33247 -1.14788 0.161048)
(-1.31573 -1.62586 0.0870179)
(-2.94441 -2.71002 -0.264352)
(-1.17571 -2.58013 -0.171661)
(0.237777 -0.156487 0.0606453)
(0.43021 0.0560215 0.19473)
(-3.59223 -2.36387 -1.32075)
(-0.23853 -0.155571 -0.0612639)
(-0.430169 0.0553701 -0.194737)
(3.60354 -2.36561 1.32572)
(0.021733 0.0180499 0.119245)
(-0.102685 -0.0626579 -0.0413307)
(-0.127398 -0.039554 0.0505525)
(-0.125569 -0.0514289 0.104666)
(-0.131389 -0.074566 0.072737)
(0.018357 -0.00884178 -0.00367482)
(0.111312 0.0375126 -0.0980552)
(0.0672581 -0.00169794 -0.00503163)
(0.0943345 0.0070738 -0.112321)
(-1.2361 -1.98209 -0.346328)
(1.63084 -0.485063 0.0510964)
(-1.10204 -0.534931 0.232261)
(0.508966 -1.02918 -0.481314)
(0.116792 -0.228298 0.53018)
(0.031981 -0.0367496 -0.0890916)
(0.0448952 0.0250207 -0.0948788)
(-0.0404981 -0.0784014 -0.0880024)
(0.0675616 0.101995 -0.144907)
(0.055398 0.0758209 -0.135598)
(0.0174001 0.0138983 -0.0995806)
(0.0428185 -0.0232473 -0.109115)
(0.0431567 -0.0301215 -0.106581)
(-0.0131357 0.0480304 -0.145439)
(0.00262252 -0.0153248 -0.147637)
(-0.0976218 0.0417137 -0.138677)
(-0.0506776 0.0263978 -0.12359)
(0.00731487 -0.0173922 -0.148243)
(-0.0869349 0.0732173 -0.209273)
(-0.0845937 -0.0341674 0.210203)
(-0.0441277 0.0431731 -0.119909)
(-0.0630561 0.0353969 -0.121009)
(-0.104869 0.0579349 -0.203539)
(-0.0911846 -0.0204613 0.19764)
(-0.0910827 -0.0383604 0.183245)
(-0.110035 0.0616904 -0.210396)
(-0.0846558 0.0670132 -0.204464)
(-0.00913253 0.0391322 -0.214663)
(-0.0436177 0.0686005 -0.047445)
(-0.0781728 0.0664579 -0.243094)
(-0.0922728 0.0560537 -0.17249)
(0.02119 -0.0800232 0.0246214)
(-0.00131028 -0.0568476 -0.0234352)
(-0.000526156 -0.0678771 0.0547635)
(0.00769599 -0.0446513 0.106115)
(0.0175466 0.0688624 -0.172698)
(-0.0111729 0.0752268 -0.0914804)
(-0.0412843 0.00557755 0.00906585)
(-0.104284 0.102044 0.0497433)
(-0.56738 -1.07325 0.482325)
(-0.113421 -0.228997 -0.52675)
(0.0109184 -0.0906252 -0.0472684)
(0.0170134 -0.630519 -0.0426791)
(0.257702 -0.219484 -0.0026477)
(0.0645791 -0.128193 -0.0578371)
(0.173794 -0.0488645 -0.0915412)
(0.235839 -0.749926 -0.00138643)
(-0.0608276 0.138381 0.15672)
(-0.019974 0.0666513 0.0612601)
(-0.130371 0.0862467 0.0314976)
(0.0617055 0.251016 0.148749)
(0.150819 0.290013 -0.029212)
(0.107879 0.0997369 0.00962565)
(-0.0337786 0.0730172 0.126575)
(0.106555 0.0670662 0.24054)
(0.504794 -0.397683 -0.0790937)
(0.442473 -0.0315994 0.158272)
(1.99931 -2.90165 0.112059)
(-0.898005 -1.52876 -0.0540896)
(1.77466 0.626006 0.262759)
(1.23351 -1.98441 0.35359)
(-1.63491 -0.487165 -0.0492846)
(1.12918 -0.57986 -0.227663)
(3.17266 -0.235014 -0.0436322)
(0.012452 -0.000169523 -0.0361394)
(-0.0851798 0.0940779 0.0474526)
(-0.0220207 -0.0832502 -0.0262811)
(0.000408236 -0.0534755 0.0225818)
(-0.00297907 -0.0663273 -0.0492538)
(-0.0222113 0.0748042 0.172099)
(0.00875083 0.0762894 0.0903188)
(0.10324 0.0632545 0.208904)
(0.091311 -0.0208865 -0.199302)
(0.0921713 -0.0395906 -0.192065)
(0.103113 0.0699989 0.206263)
(0.0835913 0.0683795 0.198188)
(0.0140086 0.0431756 0.205738)
(0.0831731 0.0676645 0.253883)
(0.0876352 0.109918 0.0864805)
(0.0964586 0.0787906 0.183961)
(-0.0409753 -0.0433059 -0.374554)
(0.102413 -0.0368052 -0.215035)
(0.00162725 0.0889436 0.146392)
(0.0697423 0.0317743 0.111833)
(-0.0440639 -0.0254223 0.11388)
(-0.0418979 -0.0293745 0.110591)
(-0.0547538 0.132922 0.145627)
(-0.00761456 -0.0141116 0.139005)
(0.127765 0.0604817 0.140088)
(-0.0053723 0.0980609 0.140653)
(-0.0151674 -0.0141926 0.147485)
(-0.041435 0.0865201 0.127315)
(-0.0725956 -0.0445153 0.087018)
(-0.0565282 -0.0379819 0.0949689)
(0.206829 1.70503 -0.0513028)
(-3.16996 -0.234446 0.0417961)
(-1.61234 -3.15529 0.0266064)
(0.623249 -1.69904 -0.072888)
(-1.88 0.608707 -0.145613)
(0.0720599 0.137137 -0.153629)
(0.0181147 0.0754707 -0.0570008)
(0.130019 0.0861596 -0.0318181)
(-0.112077 0.231118 -0.116504)
(0.0375996 0.0645783 -0.117501)
(-0.104036 0.0740533 -0.237683)
(-0.0131077 -0.0939723 0.0492864)
(0.311095 -0.710746 0.0381933)
(-0.270133 -0.208724 0.0098446)
(-0.0595489 -0.125706 0.0545854)
(-0.168598 -0.0558254 0.0930328)
(-0.279519 -0.698692 0.0397596)
(1.02861 -0.113476 -0.160939)
(1.39639 -0.378948 -0.203527)
(-0.00052888 -0.0111578 0.130755)
(0.0713698 -0.0574549 0.0487074)
(-0.176706 -0.111701 -0.0238354)
(-0.164929 0.0263867 -0.0707804)
(0.178657 -0.11035 0.0219871)
(0.165974 0.0474799 0.0630862)
(0.473812 -0.479094 -0.122625)
(0.194006 -0.107791 -0.00933664)
(0.00358137 -0.0120829 -0.126397)
(-1.02812 -0.112176 0.16046)
(-1.39381 -0.375884 0.203399)
(-2.22406 -0.752491 -0.422786)
(-1.71791 -0.875518 0.303213)
(2.22412 -0.753185 0.423595)
(1.72154 -0.878646 -0.302504)
(-0.00122706 -0.0102322 0.132169)
(-0.47537 -0.476212 0.122277)
(-0.189446 -0.112473 0.00819907)
(0.00449205 -0.0122288 -0.130315)
(0.223391 0.100962 -0.10344)
(0.00550438 -0.00481255 0.000151432)
(0.0257733 -0.00417333 0.000613414)
(0.0658118 -0.00563071 -0.00283569)
(0.0469815 0.0180219 -0.0188474)
(0.24995 -0.136895 -0.17261)
(0.33176 -0.165714 -0.11165)
(-0.236275 0.108724 0.093211)
(0.00831664 -0.0178501 -0.124955)
(-0.357785 -0.0414588 -0.137256)
(-0.330771 0.0948521 0.0326455)
(-0.275121 0.0704946 0.032798)
(-0.0736505 -0.00445619 -0.0835227)
(0.057225 0.0783792 -0.132359)
(0.168611 -0.0783539 -0.141681)
(0.0555879 0.0246015 0.0479039)
(-0.0815687 0.0815574 0.153855)
(-0.0742627 0.114499 0.187312)
(-0.00177204 0.00620558 0.0148714)
(4.19291e-05 0.00550237 0.00202327)
(0.0225008 0.00626727 -0.00981543)
(-0.0205139 0.00556798 0.0245279)
(0.125291 0.0495612 0.0674202)
(-0.00879992 -0.0152223 0.128792)
(0.340274 -0.0419924 0.125021)
(0.342276 0.100678 -0.0384398)
(0.290911 0.0748866 -0.0382107)
(0.211536 0.0646099 -0.093086)
(-0.249558 -0.111691 0.185822)
(-0.263736 -0.0899363 0.138782)
(-0.258784 -0.12446 0.163808)
(-0.303788 -0.144463 0.127609)
(-0.0618838 0.0796525 0.132461)
(0.236275 -0.132301 -0.169356)
(0.276578 -0.102532 -0.138443)
(0.0755964 0.116086 -0.19169)
(0.0796079 0.0824965 -0.154839)
(0.00151926 0.00619852 -0.0147751)
(-0.000252721 0.00550142 -0.00190401)
(0.0202856 0.00558093 -0.0244098)
(-0.0227516 0.00626458 0.00994913)
(-0.126562 0.0588346 -0.0594986)
(-0.172235 -0.0832865 0.131022)
(0.994299 -0.167159 -0.214664)
(0.482168 -0.11257 -0.106527)
(-0.945734 -1.49886 -0.48982)
(1.03478 -0.485496 -0.358896)
(0.457879 -1.3377 -0.116787)
(-0.170596 -0.0659218 0.1885)
(-0.188933 -0.0660713 0.0999268)
(-0.129153 -0.158709 -0.36834)
(-0.225523 -0.00377695 -0.338728)
(0.13664 -0.12957 0.369003)
(0.229782 -0.00737248 0.347265)
(0.553176 -0.266476 0.0150907)
(0.133507 -0.168607 -0.105978)
(-0.051163 -0.638341 -0.0404259)
(-0.312819 -1.00379 0.0105414)
(0.16047 -0.0698619 -0.136469)
(0.203274 -0.0630052 -0.0998635)
(-0.0133713 0.00853812 -0.0863593)
(-0.182207 0.0839764 0.182361)
(-0.994208 -0.165159 0.214151)
(-0.446425 -0.109608 0.115223)
(0.943304 -1.49846 0.494805)
(-1.03795 -0.486654 0.359713)
(-0.0172047 -0.196495 0.303105)
(-0.0531976 -0.368835 0.219225)
(0.0102866 -0.195487 -0.300104)
(0.0586652 -0.369914 -0.219803)
(0.0206086 0.00368602 0.0844257)
(-0.0158091 0.0104182 -0.280728)
(0.169759 0.0897633 -0.152287)
(-0.558794 -0.268433 -0.0107409)
(-0.132468 -0.167653 0.1075)
(0.210211 -0.648309 0.0428354)
(0.415801 -0.936746 -0.0426275)
(-0.425526 -1.24937 0.127259)
(0.474025 -0.133943 -0.0369836)
(0.285006 -0.133955 -0.109786)
(0.797054 0.00688495 -0.174434)
(-1.11397 0.255163 -0.100546)
(0.492735 -0.019361 -0.18351)
(0.7589 0.0196181 -0.130619)
(-0.880024 -1.52811 -0.193722)
(1.17356 -0.238346 -0.0882934)
(-0.887209 -0.0733695 0.165078)
(-0.597453 -2.92928 0.0731066)
(-2.78274 -0.126701 -0.56088)
(-1.68096 0.291927 -0.235894)
(-0.110879 -3.15616 -0.0799284)
(0.0161273 0.0895099 -0.223545)
(-0.2156 -0.322563 -0.0639229)
(-0.599175 -0.167589 -0.279005)
(-0.0708544 -0.0234768 -0.112204)
(-0.0290367 -0.0915566 -0.0528637)
(-0.0285945 -0.0586213 -0.113709)
(-0.0103707 -0.0845763 -0.161383)
(0.0124396 0.0184996 -0.146904)
(0.010297 -0.071564 -0.177443)
(-0.240244 -0.173438 0.523419)
(-0.0930962 -0.347782 -1.14742)
(-0.0602568 -0.258882 -0.408184)
(-0.236102 0.08017 -0.441006)
(0.123797 0.148253 -0.123881)
(0.00537893 -0.0118462 -0.0676545)
(-0.0201321 -0.0816469 -0.0956837)
(0.0652458 0.0203541 -0.100983)
(0.0200366 -0.0139252 -0.0707063)
(0.0111452 -0.00785209 -0.141698)
(0.0676259 0.063068 -0.137628)
(-0.00108915 -0.0142413 -0.0920012)
(0.0257692 -0.030155 -0.11273)
(0.000342032 -0.0308767 -0.0851779)
(-0.00505943 -0.0132724 -0.0904441)
(0.016421 -0.0181603 -0.123188)
(-0.00561976 0.00503691 -0.12785)
(-0.00695645 -0.000366291 -0.215572)
(-0.0102782 -0.00288335 -0.109827)
(0.00171607 -0.0146477 -0.149712)
(-0.0133144 -0.00446136 -0.101761)
(0.00897536 -0.0864951 0.209223)
(-0.0158341 -0.0544368 0.208536)
(-0.00606363 -0.0556231 0.199627)
(-0.0672329 -0.113006 0.160772)
(0.0527227 -0.0532574 0.274646)
(-0.0506092 0.0286524 -0.177836)
(-0.0323048 -0.0607703 0.195933)
(-0.044676 0.0555359 -0.176544)
(-0.0497981 0.0328888 -0.189352)
(-0.11667 0.0827947 0.192934)
(-0.0509969 0.066837 -0.181641)
(-0.0738354 0.074672 -0.231516)
(-0.03079 0.00996636 0.00599229)
(-0.0824467 -0.020469 -0.0322716)
(-0.0434491 0.00443545 0.012888)
(-0.00220209 -0.0477102 -0.032593)
(-0.0373703 0.166348 0.159849)
(-0.0416078 0.0602404 -0.0753847)
(-0.0812186 0.0130889 0.0677622)
(-0.045106 0.00990806 0.0156411)
(-0.125838 0.0609588 0.127321)
(-0.0940839 0.0831826 0.0527066)
(-0.106181 0.0170771 0.0709824)
(-0.0281362 -0.00212116 0.00346231)
(-0.0315791 0.00277464 -0.0112964)
(0.220584 -0.270366 -0.408502)
(0.0759347 -0.361356 1.10547)
(0.046663 -0.265223 0.424611)
(0.238242 0.0802876 0.450587)
(0.289296 -0.263472 -0.0729379)
(0.375157 -0.227362 -0.0363674)
(0.0470148 -0.0317929 -0.147154)
(0.468366 -0.413868 -0.0470325)
(0.553809 -0.492863 -0.054889)
(-0.204898 -0.945345 0.0338987)
(0.0316934 -0.0885026 0.0551709)
(0.0306874 -0.0625397 0.122127)
(0.0112295 -0.0828616 0.168828)
(-0.00988352 0.0189503 0.146257)
(-0.0109094 -0.0700879 0.182902)
(0.0179235 -0.0777255 0.0513224)
(0.000291087 -0.0741005 0.152215)
(-0.0225604 0.0106942 0.146811)
(-0.0161658 -0.0632005 0.168735)
(-0.13975 0.00677132 0.0367762)
(-0.126355 0.0780254 0.109959)
(-0.249378 0.185686 0.181191)
(-0.0317054 0.134178 0.182737)
(0.39846 0.0959278 0.0279225)
(-0.0216877 0.0885996 0.223437)
(0.233682 -0.341748 0.0613093)
(0.628299 -0.287086 0.280774)
(1.62723 -3.00931 0.194896)
(-0.256816 -0.0822495 0.155524)
(0.306459 -0.0712889 0.0648647)
(-0.479778 -0.0686513 0.190684)
(-0.208394 -0.0785461 0.145306)
(0.176158 -0.0809483 -0.0220859)
(-0.837048 -2.52212 -0.133899)
(3.05496 -1.64279 0.268207)
(2.68984 -2.78234 0.670481)
(2.92513 -2.33331 0.261146)
(-0.399967 -2.80783 0.212144)
(1.55868 -2.80246 -0.16658)
(0.369098 -0.189382 0.098746)
(0.417546 0.16052 -0.0733853)
(-1.15969 -1.58465 -0.0395283)
(0.923204 -1.00355 -0.0405919)
(0.646141 -0.52169 -0.157815)
(0.361497 0.040479 -0.0361029)
(0.512336 -0.680475 -0.085834)
(3.46355 -0.229631 0.0693841)
(-0.445334 -0.123467 0.0373346)
(-0.271572 -0.122391 0.109453)
(-0.775145 0.00505047 0.18997)
(-0.520122 -0.0554766 0.182483)
(1.09961 0.238301 0.117811)
(0.694865 -3.28944 0.10052)
(3.23964 -0.636161 0.705841)
(2.1444 0.44141 0.267972)
(0.255804 -2.80439 0.0349583)
(-0.764157 0.009362 0.133579)
(0.874438 -1.52867 0.1999)
(-1.17951 -0.238842 0.0895342)
(0.888369 -0.0968072 -0.171557)
(0.211195 -0.270492 0.59315)
(0.0089182 0.0340601 -0.0269685)
(0.0101003 0.0478653 0.0703566)
(-0.0738772 0.0694298 0.0450638)
(0.0274936 0.100371 0.199994)
(0.0298298 0.0558318 0.0930666)
(0.0293758 0.0494032 0.0827187)
(0.0720282 0.0420212 0.0897797)
(-0.0046148 -0.00889105 -0.0147771)
(-0.0106494 0.00486541 -0.0293047)
(0.0310807 0.00976492 -0.00649872)
(0.0811481 -0.0193658 0.0303233)
(0.0435528 0.00428146 -0.013373)
(0.00237263 -0.046359 0.0315992)
(-0.00800727 -0.0418365 -0.10731)
(0.0284778 0.151398 -0.159837)
(0.0399332 0.0608115 0.0762654)
(0.0575879 0.027666 0.175016)
(0.0294956 -0.0643642 -0.198975)
(0.0510204 0.0526906 0.169853)
(0.0584452 0.0330905 0.18783)
(0.119828 0.0862782 -0.195697)
(0.0596899 0.0585158 0.167636)
(0.076749 0.0724121 0.228812)
(0.00942358 -0.0745473 -0.211977)
(0.0269641 -0.0549917 -0.209788)
(0.0161294 -0.00248489 0.228604)
(0.00957806 -0.00379979 0.154504)
(0.0716895 -0.110785 -0.1754)
(-0.0636454 -0.0588576 -0.285914)
(0.00759334 -0.0120694 0.087772)
(-0.0165827 -0.0254423 0.112595)
(0.0100988 -0.0166821 0.093893)
(-0.013451 -0.0186219 0.12542)
(0.00700943 -0.00605362 0.120759)
(-0.00507456 -0.00891589 0.154074)
(0.00909361 -0.00180712 0.12839)
(0.0164038 -0.0133588 0.109112)
(-0.00709699 -0.0116431 0.144171)
(0.0183422 -0.00822214 0.101465)
(-0.0211328 0.0158832 0.122884)
(-0.0376689 0.0651673 0.122335)
(-0.012307 -0.0144246 0.0651791)
(0.000496846 -0.0729568 0.0869326)
(-0.0632788 0.00171532 0.0915931)
(-0.00846794 -0.0195676 0.0675081)
(-0.00666764 -0.0273199 0.0908677)
(-0.161297 0.383916 0.139191)
(-0.209621 -0.273215 -0.590733)
(-1.55464 -2.81547 -0.399498)
(0.235839 -0.09333 -0.146019)
(-0.21767 -0.10865 -0.0573201)
(0.474974 -0.0552696 -0.172631)
(0.318529 -2.56932 0.0625445)
(-2.82541 -1.87596 -0.367819)
(-2.05491 -1.35478 -0.729881)
(-3.45492 -1.87537 -0.312064)
(0.129883 -3.16696 -0.379429)
(0.226969 -0.0878063 -0.121983)
(-0.170217 -0.0518002 0.10225)
(-0.758967 -3.4821 -0.0357114)
(0.263585 -0.611028 -0.0599567)
(-0.442034 0.178042 0.0295568)
(1.51306 -1.59162 0.0481858)
(0.901411 -1.81578 0.0455696)
(-0.78722 -1.11925 0.0233588)
(-0.533471 -0.446384 0.115574)
(-0.331001 0.0418423 0.0534608)
(-0.94424 -0.727358 -0.052967)
(-3.52612 -0.500879 -0.261861)
(-0.89558 -0.184743 0.0931253)
(0.119504 0.239483 -0.116019)
(0.0954861 0.0470697 -0.096451)
(0.0417679 0.124384 -0.209573)
(0.0351988 0.144104 -0.217285)
(0.109506 0.0578728 -0.132338)
(0.129157 0.0643281 -0.170051)
(0.0589109 0.122296 -0.171016)
(0.099844 0.08206 -0.129516)
(0.12482 0.0865468 -0.11328)
(0.00735489 0.157808 -0.117701)
(-0.0173469 -0.0799512 -0.0512879)
(5.92818e-05 -0.0756063 -0.146169)
(0.0582309 0.100567 -0.133379)
(0.0262257 0.00936421 -0.146238)
(0.015474 -0.0650664 -0.16378)
(0.125061 0.011828 -0.0221121)
(0.127969 0.0774038 -0.110553)
(0.0318258 0.121398 -0.183629)
(-0.399755 0.104739 -0.0270698)
(-0.096556 0.0165534 0.0565917)
(-0.0429427 0.0132415 -0.0124542)
(-0.154732 0.292216 0.0272939)
(-0.112128 0.102213 -0.011326)
(-0.498415 -0.427024 0.0704821)
(-0.40001 -0.0247302 -0.210496)
(-0.289134 -0.262831 0.0763863)
(-0.569598 -0.247883 0.0427749)
(-0.482047 -0.293435 0.00439693)
(-0.0628944 0.0635155 0.17516)
(-0.0589544 -0.437782 -0.00626262)
(-0.487404 -0.401437 0.056096)
(-0.402381 -0.472453 0.0174905)
(0.45819 -0.667406 -0.0846787)
(0.0516128 -0.0578627 -0.0975656)
(0.0408706 -0.0618313 -0.0926432)
(0.0487453 -0.049946 -0.109423)
(0.0579132 -0.0401572 -0.108822)
(-0.0464674 0.00128378 0.0198657)
(-0.0276611 -0.00514022 0.032932)
(-0.0266749 -0.00942183 0.0107087)
(0.0101252 -0.00525866 0.00326859)
(-0.0247067 -0.00641985 0.00101916)
(-0.0167328 -0.00739545 0.00619232)
(-0.0162478 -0.0141032 0.0212106)
(0.0130772 -0.00534296 0.00394919)
(-0.0156117 -0.00791015 0.00815058)
(-0.0539209 -0.00271668 0.0171796)
(-0.0341187 -0.0068158 0.00160214)
(-0.0270226 -0.00862238 0.00797615)
(-0.0510615 0.00223238 0.00950846)
(-0.0667677 0.000145679 0.00135555)
(-0.0504927 -0.00332967 -0.002575)
(-0.0284209 -0.00606898 -0.000385731)
(-0.0172703 -0.00468952 -0.00351143)
(-0.0394413 -0.00431549 -0.003351)
(-0.0686442 -0.00232925 -0.00034279)
(-0.0372858 -0.00633535 -0.000112341)
(-0.0473028 -0.00430505 -0.00308858)
(-0.0463426 -0.00016652 0.00757787)
(-0.020421 -0.00445049 -0.00395448)
(-0.0428502 -0.00360891 -0.0030363)
(-0.145179 -0.0596924 0.138979)
(-0.179241 -0.0702105 0.092523)
(-0.163897 -0.0657448 0.114068)
(-0.204203 -0.0784398 0.09577)
(0.0463932 0.0011824 -0.0202228)
(0.0273655 -0.00514613 -0.0330572)
(0.0264851 -0.00927197 -0.0111827)
(0.0247556 -0.00636185 -0.00158792)
(-0.01003 -0.00524536 -0.00383207)
(0.0166972 -0.00732647 -0.00675408)
(0.0537875 -0.00278242 -0.0175949)
(0.0340808 -0.00674198 -0.00219874)
(0.0269017 -0.00851332 -0.00852625)
(0.0160057 -0.013993 -0.021333)
(-0.0130189 -0.00533084 -0.00452937)
(0.0155286 -0.00780783 -0.00869979)
(-0.0605715 -0.031568 0.112443)
(-0.0584237 -0.0334472 0.109804)
(-0.0818961 -0.0435369 0.0948407)
(-0.0701228 -0.0513757 0.0952732)
(0.148777 -0.0816088 -0.133684)
(0.179755 -0.0737047 -0.100376)
(0.172492 -0.0769604 -0.127504)
(0.19504 -0.0761213 -0.100388)
(0.0417298 0.04779 -0.190961)
(0.0181573 0.0174571 -0.261704)
(-0.187333 -0.0940879 -0.281246)
(-0.365557 -0.0169961 -0.170857)
(-0.105338 0.00814047 -0.207147)
(-0.0930992 0.046111 -0.182867)
(-0.425048 -0.167538 -0.301182)
(-0.0150024 0.00386643 -0.181657)
(0.263768 0.187746 -0.384592)
(0.228719 0.121729 0.00320122)
(0.324406 0.0899906 -0.0336965)
(0.107566 0.0194806 -0.089411)
(0.150706 0.0628852 -0.18916)
(0.195467 0.15555 -0.0700842)
(0.211881 0.140832 -0.219068)
(-0.0381019 0.00327983 -0.0869754)
(0.185226 0.197474 -0.242399)
(0.212895 0.216775 -0.219875)
(0.13417 0.170575 -0.134806)
(0.0223969 -0.0209583 -0.129945)
(0.0256703 -0.0250951 -0.127533)
(-0.00914499 0.0343474 0.026632)
(0.0725882 0.0704297 -0.0433322)
(-0.0305032 0.054752 -0.0925001)
(-0.0304528 0.0940438 -0.198373)
(-0.0126205 -0.000111218 0.0362364)
(0.0849829 0.0941398 -0.0485474)
(-0.073026 0.0425678 -0.0875715)
(-0.0323785 0.0445256 -0.08089)
(-0.0660248 0.0047784 0.0642724)
(-0.0598579 0.00443979 0.00428421)
(0.0124981 -0.0715089 0.0283608)
(0.00346229 -0.0518024 -0.0127305)
(0.00401784 -0.0433549 -0.0220137)
(-0.0650153 0.00139916 0.00169337)
(0.0378363 0.0029629 0.0866202)
(-0.192759 0.196009 0.23863)
(-0.216644 0.218724 0.221555)
(-0.137634 0.171876 0.134557)
(-0.0954446 0.0472599 0.0968831)
(-0.0455065 0.152223 0.214859)
(-0.0406714 0.122891 0.209584)
(-0.0126814 0.00758276 0.0216304)
(-0.0715028 0.0137139 0.0537238)
(-0.0298811 0.00675626 0.0322333)
(-0.0646256 0.0158092 0.0362217)
(0.0728578 0.0137138 -0.036888)
(0.0293399 0.0110645 0.0142083)
(0.00506231 0.00615077 0.0133124)
(0.0326934 0.00588912 -0.0139536)
(-0.103641 0.019007 0.0628319)
(-0.0987596 0.0441607 0.0365368)
(-0.0235325 0.00169091 0.112969)
(-0.27445 0.190126 0.11255)
(-0.0419013 0.04729 0.185526)
(-0.0229175 0.0201646 0.255893)
(0.17465 -0.0928653 0.288693)
(0.335807 -0.050305 0.167416)
(0.119247 0.00915142 0.156765)
(0.152413 0.0733067 0.170773)
(-0.0102123 0.0163117 0.2305)
(0.383264 -0.136961 0.373604)
(0.0907277 0.039043 0.171381)
(0.16108 0.104176 -0.12754)
(0.425067 -0.18143 -0.017282)
(0.443676 -0.133491 0.200537)
(-0.0102796 -0.0173395 0.105161)
(-0.0193575 -0.0227533 0.125211)
(-0.0200131 -0.0349529 0.131086)
(-0.0730983 0.0137398 0.0371721)
(-0.0298072 0.0110455 -0.0141875)
(-0.00533814 0.0061362 -0.0132259)
(-0.032934 0.00588122 0.0140995)
(0.0124201 0.0075742 -0.0215431)
(0.0712004 0.0136982 -0.0536266)
(0.0296444 0.00676313 -0.0321217)
(0.0642555 0.0158023 -0.0361502)
(0.160073 0.134296 -0.0116956)
(0.103256 0.0189824 -0.0627441)
(0.0983253 0.0440312 -0.0364817)
(0.0243315 0.00127967 -0.113676)
(0.273807 0.1895 -0.112812)
(-0.43431 -0.219071 0.0191694)
(-0.44164 -0.105344 -0.199769)
(-2.11601 -3.04961 -0.00315205)
(1.40261 -1.71349 -0.122844)
(-0.805845 0.288666 0.219009)
(-0.868135 -3.27032 -0.126236)
(1.10045 -1.2619 -0.195354)
(-1.81347 0.685322 -0.356872)
(2.27248 -1.92248 -0.0838469)
(-1.28578 0.722972 -0.150772)
(1.42014 -2.4093 0.0111908)
(2.61364 -2.19342 -0.0127109)
(-0.194319 -0.0701608 0.124926)
(-0.183401 -0.0625784 0.116954)
(0.280267 -0.0909132 0.0566983)
(-0.0250422 -0.10591 0.016951)
(-0.121521 -0.119295 0.0295285)
(0.161905 -0.094142 -0.0164755)
(-0.205096 -0.0870405 -0.00960232)
(-0.0843515 -0.199434 0.241558)
(-0.103798 -0.166519 0.269913)
(-0.340978 -0.0761182 -0.19346)
(-0.322776 -0.0888248 -0.0374918)
(-0.221602 -0.078588 -0.0604442)
(-0.325689 -0.0132389 -0.121338)
(-0.291641 -0.100767 0.38693)
(0.0698569 -0.216995 0.249565)
(-0.158747 -0.143963 0.304697)
(0.1562 -0.0950804 0.182938)
(-0.130812 -0.155583 -0.0819123)
(-0.0626791 0.0908948 -0.142008)
(-0.100872 0.00267209 -0.0782874)
(-0.839855 -0.71135 0.0809427)
(-0.283596 0.299465 -0.000709169)
(0.150634 0.0372695 0.0850505)
(1.11076 -0.780526 -0.0555187)
(0.290879 0.511502 0.0296913)
(1.15373 -0.831254 -0.159211)
(0.0841541 -0.188879 -0.233714)
(0.184746 -0.186981 -0.246968)
(0.325835 -0.0751785 0.164521)
(0.318365 -0.132767 0.0338758)
(0.226713 -0.0816937 0.0443105)
(0.311648 -0.0714964 0.12024)
(0.0536664 -0.0192731 0.160878)
(0.304334 -0.105166 -0.397513)
(-0.0670253 -0.216021 -0.252941)
(0.189722 -0.156628 -0.321276)
(-0.155532 -0.0936546 -0.182398)
(0.14121 -0.157307 0.082918)
(0.0588715 0.0901408 0.144315)
(0.481283 -0.365026 -0.109551)
(0.792069 -0.334415 -0.0806679)
(0.130265 -0.0515173 -0.0123247)
(0.493996 -0.270751 -0.178128)
(0.50426 -0.65583 -0.17086)
(0.125863 -0.0450568 -0.0537481)
(0.242865 0.427695 -0.0808022)
(0.435244 -0.344505 -0.0533348)
(0.246141 -0.215107 -0.0502925)
(-0.152384 -1.14136 0.127259)
(0.265065 -0.256735 -0.0561903)
(0.0878705 -0.0413594 -0.0968073)
(0.125651 -0.047849 -0.103257)
(0.368033 -0.426282 -0.0269598)
(0.107573 0.0054552 -0.0523615)
(0.128924 -0.0472674 -0.0847374)
(0.211275 -0.180123 -0.0788211)
(0.114703 -0.14552 -0.0902017)
(0.217233 -0.0846816 -0.142379)
(0.168494 -0.0545192 -0.108261)
(0.101143 -0.11604 -0.0344387)
(-0.193921 -0.132565 -0.0484758)
(-0.1558 -0.0758408 0.0696007)
(-0.0253076 0.0726322 0.243374)
(-0.0261304 0.0550607 0.177876)
(-0.128893 0.0728066 0.114691)
(-0.0424005 0.0453595 0.132979)
(-0.0239213 0.0798658 -0.234765)
(-0.166002 0.0942638 0.0960631)
(2.11512 -3.04781 0.00315183)
(-1.40189 -1.71218 0.123317)
(0.867399 -3.26752 0.126489)
(-1.10029 -1.26047 0.195972)
(1.8135 0.68643 0.357076)
(-2.26875 -1.92165 0.0840291)
(1.28758 0.72424 0.150829)
(-1.41704 -2.40793 -0.0107538)
(-2.60949 -2.19119 0.0132799)
(0.414419 -0.506474 -0.134183)
(0.147688 0.0639466 -0.126608)
(0.0414375 0.0465083 -0.132759)
(0.0267468 0.0561261 -0.177027)
(0.172669 0.0954074 -0.10444)
(-0.478061 -0.362381 0.111976)
(-0.763121 -0.343585 0.0754518)
(-0.129051 -0.0413166 0.0194484)
(-0.520016 -0.285435 0.191874)
(-0.541691 -0.607942 0.15317)
(-0.129904 -0.0239689 0.0621165)
(0.0485512 1.51315 -0.0431973)
(-0.45136 -0.353297 0.0608266)
(-0.25605 -0.216848 0.0536544)
(-0.279406 -0.242165 0.0480456)
(-0.078379 -0.04216 0.0843357)
(-0.116258 -0.0628112 0.0908892)
(0.219267 -1.0893 -0.157182)
(-0.349585 -0.4086 0.0118414)
(-0.114043 -0.0617357 0.0735103)
(-0.100779 0.0418753 0.0468761)
(-0.209833 -0.179747 0.0805832)
(-0.117497 -0.146774 0.0916665)
(0.093415 0.0838203 -0.0524904)
(0.0406286 0.00522306 -0.00965476)
(0.103873 0.102375 -0.0496176)
(0.104144 0.022676 -0.0722493)
(0.0448077 0.00945381 -0.016595)
(0.0964211 0.0188931 -0.0686103)
(-0.0142576 -0.073203 -0.0304878)
(-0.003382 -0.0494975 0.0117401)
(-0.00378139 -0.0424399 0.0214286)
(0.0650158 0.00135896 -0.00235915)
(0.0715824 0.00220976 -0.0863935)
(0.0599924 0.0044597 -0.00495972)
(0.0612259 0.00403199 -0.067859)
(1.5945 -1.5297 -0.157421)
(0.958749 -0.228834 -0.201182)
(1.13743 -0.567527 -0.0799833)
(1.18761 -1.97716 0.0403721)
(-1.15398 -1.45698 0.00754254)
(-3.4619 -1.45233 -0.618337)
(-2.97005 -2.51833 -0.347913)
(1.33665 -2.20234 0.112854)
(1.19145 -0.38644 -0.129411)
(-1.0887 -1.26414 -0.158297)
(-1.0077 -0.751042 -0.0671214)
(0.951855 -1.92388 -0.175265)
(1.16101 -0.822901 -0.0595644)
(1.1471 -2.28387 0.00732064)
(0.881657 -0.731665 -0.271482)
(-1.47383 -3.49567 -0.0220486)
(-0.620887 0.268526 -0.268592)
(-2.25957 -3.18749 -0.0340501)
(0.687911 -0.521797 -0.168276)
(-0.0280038 -0.0346334 -0.23727)
(-0.0508019 -0.0185998 -0.260608)
(-0.0403284 -0.0571914 -0.256689)
(-0.0638869 -0.111685 -0.25011)
(-0.488528 -0.0857134 0.515202)
(1.21524 -1.17735 -2.20931)
(0.330423 -0.603413 -1.09365)
(0.023501 0.026967 -0.0583744)
(-0.0204017 -0.0854178 -0.0905672)
(0.065328 0.0196137 -0.0904724)
(0.0947241 0.215264 -0.0920734)
(-0.122286 -0.159715 -0.109926)
(0.0419692 0.0326834 -0.081601)
(0.15436 -0.322363 0.0141451)
(-0.118915 -0.134126 0.0538526)
(0.00179856 -0.0126922 -0.0865642)
(0.0280456 -0.0262855 -0.116863)
(0.00581136 -0.0212787 -0.0857642)
(-0.256296 -0.162338 0.110656)
(-0.00334879 -0.0271143 -0.0923709)
(0.0290628 -0.0277618 -0.112736)
(0.0801703 -0.111662 0.0988954)
(-0.0027304 -0.238501 0.109091)
(0.137902 -0.109604 0.283495)
(-0.00941025 0.0027792 -0.10667)