/*--------------------------------*- C++ -*----------------------------------*\
  =========                 |
  \\      /  F ield         | OpenFOAM: The Open Source CFD Toolbox
   \\    /   O peration     | Website:  https://openfoam.org
    \\  /    A nd           | Version:  13
     \\/     M anipulation  |
\*---------------------------------------------------------------------------*/
FoamFile
{
    format      ascii;
    class       volScalarField;
    location    "0.0951197";
    object      yPlus;
}
// * * * * * * * * * * * * * * * * * * * * * * * * * * * * * * * * * * * * * //

dimensions      [];

internalField   uniform 0;

boundaryField
{
    walls
    {
        type            calculated;
        value           nonuniform List<scalar> 
30048
(
7.87489
11.0264
13.9722
16.8353
19.602
22.3981
25.2978
28.377
31.6879
35.2812
39.2077
43.4616
47.8985
51.6033
28.4215
31.4799
34.4776
37.6285
40.9215
44.2956
47.6678
50.9268
53.9275
56.4872
58.3829
59.3538
59.114
57.3681
53.823
48.1781
40.0081
28.1804
4.97388
28.1907
38.3669
45.0355
49.4859
52.2883
53.7727
54.1593
53.5906
52.1404
49.823
46.6006
42.3869
37.0562
30.5374
23.5297
7.94828
11.1042
14.0978
16.9915
19.7557
22.5929
25.5268
28.6342
31.9664
35.5636
39.4645
43.7144
48.4334
26.6062
29.3295
32.1827
35.4719
38.8957
42.4862
46.2086
49.9869
53.7049
57.2043
60.2604
62.5943
63.8844
63.7894
61.9605
58.046
51.6342
42.1722
28.2875
12.6017
32.7531
43.0336
49.6357
53.9274
56.5194
57.7698
57.9251
57.125
55.4519
52.8993
49.4006
44.7852
38.7828
31.1534
23.243
8.07373
11.2434
14.3073
17.2454
20.0969
22.9702
25.9998
29.2107
32.6681
36.4259
40.5272
45.0639
50.1475
27.1745
30.1284
16.5103
18.1513
19.9866
21.9721
24.0827
26.2891
28.5441
30.7763
32.8818
34.7102
36.0639
36.6928
36.323
34.6598
31.4174
26.2726
18.4965
4.00944
18.6073
24.9254
28.8104
31.2047
32.5573
33.1438
33.1242
32.6034
31.6213
30.1795
28.2327
25.6699
22.3016
17.9822
22.7394
8.23396
11.4278
14.5738
17.5732
20.499
23.475
26.5877
29.922
33.5288
37.4664
41.781
46.6081
51.9591
28.2791
31.5179
17.3379
19.1991
21.2946
23.6021
26.1119
28.8054
31.6459
34.5689
37.4586
40.1392
42.3464
43.7328
43.8619
42.2517
38.4211
31.8591
21.4653
10.2502
24.6598
31.6722
35.749
38.0162
39.0788
39.3227
38.9603
38.1068
36.7982
35.0399
32.7747
29.8437
25.914
20.5999
22.7885
8.40536
11.6293
14.8577
17.9267
20.935
24.0063
27.2361
30.7039
34.4527
38.5961
43.1457
48.2599
53.9303
29.5909
33.0142
18.2745
20.3464
22.7145
25.3628
28.2976
31.516
35.0003
38.7015
42.5131
46.2413
49.5814
52.0657
53.0588
51.794
47.4695
39.2803
25.6589
15.5279
31.8378
39.7952
44.0873
46.1495
46.8291
46.6462
45.8631
44.5977
42.8907
40.7521
38.1635
34.9793
30.794
24.958
27.6061
8.55575
11.8141
15.1149
18.2478
21.3284
24.483
27.8109
31.3931
35.2985
39.6007
44.3373
49.6741
55.5945
30.9919
34.3699
19.169
21.3984
24.0059
26.9587
30.2745
33.9696
38.0537
42.4963
47.2202
52.0499
56.6577
60.4984
62.727
62.2125
57.681
47.9036
30.8571
20.2492
39.27
48.278
52.7636
54.5675
54.8142
54.1666
52.9367
51.2271
49.0674
46.499
43.5783
40.2629
36.2208
30.6288
34.4733
8.6676
11.9571
15.3132
18.4955
21.6306
24.8478
28.2492
31.9186
35.9294
40.3522
45.2542
50.711
56.8742
32.4513
35.4148
19.8894
22.2156
25
28.1821
31.7865
35.8481
40.3929
45.4241
50.896
56.6676
62.4353
67.6258
71.2349
71.7494
67.3128
56.1975
36.0656
23.9706
45.7034
55.6647
60.3211
61.9203
61.7978
60.7389
59.0835
56.9466
54.352
51.3676
48.1174
44.7113
41.0243
36.4448
55.3267
8.73163
12.0392
15.4256
18.6359
21.801
25.0519
28.4924
32.208
36.2739
40.7622
45.7389
51.297
57.5236
33.5073
36.1035
20.3346
22.709
25.5976
28.9113
32.6848
36.9588
41.7784
47.1638
53.0953
59.4651
66.0007
72.1451
76.8073
78.1661
73.8589
61.7911
39.513
26.3994
49.8247
60.3526
65.1202
66.6273
66.3152
64.9969
63.0364
60.5781
57.6848
54.4188
50.9384
47.4431
43.9383
39.8246
59.973
8.7392
12.0525
15.4419
18.6545
21.8213
25.0733
28.5143
32.2296
36.2945
40.7807
45.7537
51.3077
57.5343
34.0081
36.2455
20.4519
22.8357
25.7473
29.0933
32.9048
37.2281
42.1103
47.5788
53.6223
60.1361
66.8671
73.2584
78.2073
79.787
75.4774
63.1059
40.2431
27.1168
50.7493
61.3418
66.1065
67.5923
67.2484
65.8708
63.8247
61.2821
58.3187
55.0105
51.4996
47.991
44.4979
40.3663
59.5051
8.69019
11.9965
15.3614
18.5505
21.6907
24.9111
28.3137
31.9821
35.989
40.4054
45.2946
50.7422
56.8634
33.7268
35.8187
20.2351
22.5875
25.4426
28.7137
32.4322
36.6397
41.3708
46.6459
52.4366
58.6272
64.9379
70.807
75.1814
76.312
71.9738
60.2027
38.6795
25.1419
48.1678
58.5099
63.2448
64.7974
64.5584
63.2885
61.3689
58.9726
56.184
53.0672
49.7313
46.3131
42.7562
38.4668
57.4875
8.5928
11.8786
15.1939
18.3381
21.4271
24.5871
27.9171
31.4985
35.3978
39.6906
44.4077
49.7274
55.606
32.5957
34.9263
19.7135
21.9836
24.7031
27.8005
31.298
35.2263
39.6049
44.4258
49.6393
55.0949
60.4857
65.2647
68.4888
68.7722
64.4486
53.9834
35.3445
20.92
42.5972
52.4401
57.1751
58.9548
59.0002
58.024
56.407
54.327
51.8754
49.0983
46.042
42.7112
38.8471
33.6626
37.7213
8.45484
11.7168
14.9648
18.0499
21.0699
24.1492
27.381
30.8484
34.5902
38.7275
43.2556
48.3429
53.9524
30.8829
33.7139
18.9241
21.0793
23.5947
26.4294
29.5972
33.1094
36.9648
41.1326
45.528
49.9789
54.181
57.6286
59.5676
59.0016
54.8217
45.9735
30.8481
15.5125
35.3821
44.4847
49.1873
51.2713
51.7391
51.2036
50.0112
48.3507
46.3043
43.9063
41.1403
37.8763
33.6992
27.81
28.2864
8.29485
11.5362
14.706
17.7257
20.6665
23.6567
26.7638
30.1081
33.7078
37.6342
41.9274
46.7225
52.0328
29.017
32.2211
17.9888
19.9816
22.2407
24.7513
27.5141
30.5246
33.7599
37.1657
40.6425
44.0142
47.0051
49.2054
50.0648
48.9218
45.0844
37.8686
26.0888
9.98002
28.068
36.2577
40.8051
43.1366
44.0244
43.9532
43.2237
41.9964
40.3587
38.3229
35.8354
32.7148
28.5538
22.8453
23.2326
8.14247
11.3695
14.4583
17.4197
20.2855
23.1831
26.2149
29.428
32.8806
36.6269
40.7072
45.2121
50.2524
27.4507
30.7347
17.0634
18.8436
20.8282
22.9974
25.3387
27.8293
30.4363
33.0902
35.6912
38.0812
40.0321
41.2452
41.3464
39.9202
36.546
30.7802
21.7707
4.43299
21.696
28.9326
33.2045
35.6595
36.8694
37.1964
36.8783
36.0481
34.7756
33.0741
30.8822
28.0434
24.2619
19.2843
21.6656
8.01957
11.2442
14.2595
17.1769
19.9771
22.8238
25.7658
28.8766
32.2054
35.7923
39.6733
43.8935
48.5604
26.6215
29.427
16.3103
17.8878
19.6328
21.5044
23.4781
25.5223
27.59
29.6224
31.5158
33.1418
34.3299
34.8662
34.5075
32.9914
30.0604
25.425
18.4694
4.67174
16.7432
23.2183
27.2151
29.7056
31.1285
31.7517
31.7481
31.2289
30.2569
28.8424
26.9481
24.4767
21.2748
17.2743
22.453
7.94601
11.1774
14.139
17.0444
19.8276
22.6381
25.5492
28.6322
31.9409
35.5244
39.4326
43.6595
48.0594
51.6649
28.6734
31.6197
34.5867
37.7248
41.0148
44.3965
47.7936
51.1077
54.2114
56.9324
59.0472
60.2889
60.3561
58.9555
55.7886
50.5227
42.6898
31.1239
8.20143
28.3503
39.5066
46.6818
51.3889
54.2768
55.7318
56.0261
55.3378
53.7444
51.27
47.8807
43.4864
37.9419
31.1375
23.5637
7.91484
11.1819
14.154
17.0668
19.8557
22.6714
25.589
28.6798
31.9986
35.595
39.5215
43.7684
48.1935
51.8385
28.5314
31.5718
34.5559
37.6908
40.9683
44.3313
47.7022
50.9769
54.018
56.6479
58.6469
59.7564
59.6881
58.1316
54.7709
49.2694
41.1616
29.2951
2.46008
28.833
39.5754
46.6089
51.2885
54.1963
55.6831
55.9958
55.3021
53.7011
51.2308
47.8687
43.5362
38.1123
31.533
24.5025
7.9905
11.2469
14.2745
17.1984
20.0076
22.8586
25.8063
28.925
32.264
35.8636
39.7623
44.0017
48.701
26.7451
29.4327
32.2609
35.5383
38.9355
42.491
46.1716
49.9089
53.5949
57.0691
60.1065
62.4553
63.8246
63.8707
62.2448
58.5874
52.4593
43.3038
29.7923
10.3801
32.6187
43.5252
50.6029
55.1931
57.9204
59.1885
59.2719
58.3461
56.536
53.8731
50.2603
45.548
39.5112
31.8951
23.9741
8.11583
11.3721
14.475
17.4439
20.3137
23.2197
26.2568
29.4771
32.9395
36.6975
40.794
45.313
50.3873
27.2858
30.2155
16.5487
18.1769
19.9948
21.9601
24.0489
26.2279
28.4563
30.665
32.7556
34.5829
35.9684
36.6663
36.4162
34.9254
31.9015
27.0195
19.6194
4.67113
17.8933
24.7236
28.9212
31.5171
32.9785
33.5958
33.5506
32.9732
31.9235
30.4155
28.4093
25.799
22.4058
18.0999
23.1771
8.27049
11.5397
14.7247
17.7523
20.6986
23.6962
26.8078
30.1618
33.772
37.7107
42.0223
46.8291
52.1803
28.3653
31.5921
17.3711
19.22
21.2953
23.5771
26.053
28.7023
31.4919
34.3486
37.1676
39.7766
41.9402
43.3201
43.5235
42.094
38.5737
32.483
22.9085
5.32018
23.0695
30.6486
35.1011
37.6395
38.8691
39.1801
38.8177
37.9282
36.5791
34.7862
32.4896
29.5262
25.5831
20.3347
23.0707
8.43268
11.7216
14.9857
18.0789
21.1053
24.1916
27.4312
30.9079
34.6652
38.8174
43.368
48.4791
54.127
29.6773
33.1074
18.3211
20.3838
22.7381
25.3661
28.2709
31.4419
34.859
38.4588
42.1351
45.6901
48.8373
51.1335
52.0131
50.7867
46.7346
39.1414
26.7385
11.3015
29.4549
37.8346
42.4852
44.866
45.7749
45.7087
44.9743
43.7316
42.0543
39.9519
37.3781
34.1541
29.8809
24.0414
27.2213
8.57309
11.8852
15.2171
18.3703
21.4668
24.6349
27.9747
31.5684
35.4838
39.7954
44.5425
49.8966
55.8175
31.0733
34.5067
19.2413
21.4786
24.0894
27.0425
30.3507
34.0191
38.0474
42.3805
46.9223
51.4664
55.6775
59.0253
60.7491
59.8694
55.3039
46.0128
30.2789
17.3233
36.4149
45.4212
50.1134
52.2322
52.7664
52.3229
51.2368
49.6644
47.6652
45.2533
42.4197
39.0451
34.7394
28.7889
35.4319
8.67314
12.0049
15.3867
18.5855
21.7342
24.964
28.3784
32.062
36.089
40.5326
45.4546
50.948
57.1001
32.5169
35.5719
20.0065
22.3565
25.1707
28.3856
32.0244
36.1059
40.6442
45.6045
50.8975
56.3181
61.5074
65.8494
68.4107
67.8821
62.7455
51.6414
32.4368
23.2066
42.7228
52.0028
56.5841
58.4278
58.6743
57.99
56.6955
54.9125
52.6725
49.9855
46.9014
43.4342
39.3205
33.8023
41.5929
8.72221
12.0626
15.4685
18.6911
21.8665
25.1284
28.5819
32.3134
36.3995
40.9146
45.9226
51.5248
57.8198
33.6274
36.3021
20.4886
22.9101
25.8564
29.2432
33.1004
37.4594
42.3431
47.7373
53.5588
59.6052
65.4982
70.5568
73.6994
73.3114
67.5053
54.7539
32.6357
27.7293
46.8583
55.9861
60.3709
62.0555
62.2383
61.5688
60.3038
58.5174
56.1923
53.3299
50.0554
46.5141
42.6322
37.8113
55.4566
8.71426
12.0489
15.4516
18.6717
21.8451
25.1055
28.5581
32.2893
36.3759
40.8923
45.903
51.5083
57.803
34.1848
36.5206
20.6329
23.0793
26.0729
29.5223
33.4595
37.9246
42.9475
48.5169
54.5555
60.8594
67.0285
72.3451
75.6422
75.1725
68.9356
55.404
32.0987
29.2713
47.7672
56.5749
60.8028
62.5029
62.8472
62.4055
61.3591
59.7156
57.4413
54.5539
51.2144
47.6353
43.823
39.2191
58.7657
8.65029
11.9641
15.3367
18.5281
21.6709
24.8965
28.3084
31.9916
36.0207
40.4686
45.4015
50.902
57.0965
33.9482
36.0914
20.4335
22.846
25.7934
29.1855
33.0532
37.4329
42.3515
47.7937
53.6743
59.7798
65.7011
70.7088
73.6682
72.969
66.823
53.8473
31.8009
27.084
45.3595
54.0159
58.2767
60.1545
60.7445
60.5624
59.7362
58.2598
56.1086
53.3332
50.0833
46.5348
42.6138
37.6716
51.3565
8.53565
11.8188
15.1358
18.2766
21.3634
24.5245
27.8603
31.4526
35.3713
39.6909
44.4494
49.8152
55.771
32.8588
35.1658
19.9011
22.2286
25.0397
28.257
31.905
36.0075
40.5813
45.5917
50.9391
56.3974
61.5537
65.7268
67.9194
66.8432
61.139
49.6795
30.5342
22.8157
40.7264
49.2645
53.6502
55.7357
56.5202
56.4876
55.7903
54.4538
52.4857
49.9375
46.8998
43.4305
39.288
33.7189
39.7681
8.38316
11.632
14.8759
17.9519
20.965
24.0411
27.2761
30.7508
34.5081
38.6635
43.2289
48.3583
54.0588
31.1342
33.9126
19.0816
21.2917
23.8902
26.8331
30.1356
33.8052
37.8376
42.1755
46.708
51.1989
55.2724
58.3346
59.5928
58.1099
52.9565
43.2952
27.4647
18.3543
35.1108
43.2639
47.6631
49.8887
50.8029
50.8646
50.2713
49.0912
47.3538
45.0844
42.3087
38.9418
34.614
28.5639
31.2423
8.21036
11.429
14.5902
17.5958
20.5256
23.5053
26.6213
29.9609
33.5726
37.5157
41.8396
46.6677
52.0391
29.1994
32.3642
18.1165
20.1555
22.4863
25.0896
27.9672
31.1096
34.491
38.0411
41.6388
45.0672
48.0065
49.9849
50.4361
48.7155
44.2071
36.303
23.6532
14.0325
29.1169
36.6205
40.9009
43.2294
44.3017
44.516
44.0897
43.1131
41.6306
39.6474
37.1294
33.9251
29.6574
23.8165
25.6556
8.04902
11.2437
14.3228
17.2668
20.1219
22.9985
26.0309
29.2449
32.7063
36.4683
40.5761
45.1143
50.2152
27.4197
30.8122
17.1475
18.9827
21.0301
23.2781
25.7151
28.3157
31.0424
33.8191
36.5256
38.9821
40.9342
42.0456
41.9279
40.1639
36.3513
30.0509
20.2375
9.60937
23.3035
30.0937
34.1838
36.5945
37.8539
38.2851
38.0841
37.3486
36.1229
34.4131
32.1653
29.2362
25.3436
20.2292
23.6952
7.92289
11.1043
14.1132
17.0129
19.7808
22.6212
25.5579
28.6687
32.0051
35.6073
39.5157
43.7712
48.5059
26.6252
29.5089
16.3813
18.0062
19.8075
21.7481
23.8048
25.9415
28.114
30.2452
32.2338
33.9357
35.1598
35.6643
35.2021
33.5003
30.2914
25.275
17.7
4.78855
18.3798
24.5875
28.4986
30.9811
32.423
33.0717
33.0917
32.5797
31.5869
30.12
28.1392
25.5542
22.2106
18.0392
23.6882
7.84912
11.0265
13.9877
16.8569
19.6273
22.4265
25.3292
28.4117
31.7269
35.3254
39.2603
43.5207
47.9656
51.6967
28.7197
31.7493
34.8038
38.0474
41.4627
44.9913
48.5543
52.0446
55.3224
58.2096
60.4698
61.8116
61.9075
60.4187
57.033
51.3939
42.9982
30.5137
5.98221
31.0173
42.1013
49.3164
54.0522
56.9555
58.4143
58.6852
57.9331
56.233
53.605
50.0152
45.3628
39.4926
32.2985
24.3575
7.96774
11.2223
14.1903
17.1047
19.8949
22.7104
25.6253
28.7107
32.0205
35.6039
39.5109
43.7352
48.1311
51.7282
28.4573
31.4594
34.3953
37.4701
40.6747
43.9502
47.2174
50.3717
53.2778
55.7636
57.6161
58.5856
58.3926
56.7405
53.3309
47.8418
39.8178
28.1048
5.18974
28.3227
38.5979
45.3335
49.8079
52.584
54.0025
54.2991
53.6327
52.0922
49.7057
46.4457
42.2318
36.939
30.4862
23.5433
8.04271
11.2869
14.3104
17.2358
20.0464
22.8971
25.8422
28.9555
32.2855
35.8725
39.7526
43.9704
48.6338
26.6886
29.3597
32.1662
35.3978
38.7387
42.2279
45.8298
49.4738
53.0537
56.4098
59.3367
61.5895
62.8625
62.826
61.146
57.4516
51.3103
42.1936
28.8167
10.9683
32.0713
42.6422
49.4882
53.9369
56.5808
57.7762
57.8172
56.9164
55.1527
52.5319
48.9984
44.3954
38.4615
30.9307
23.0682
8.16704
11.4115
14.5103
17.4807
20.3518
23.2575
26.2919
29.5071
32.9611
36.7074
40.7868
45.2888
50.3265
27.2359
30.1351
16.4897
18.0938
19.8854
21.8166
23.8668
26.0036
28.1845
30.3452
32.3869
34.1728
35.519
36.1989
35.9408
34.4559
31.4529
26.6059
19.2517
4.10635
17.7497
24.416
28.4935
30.9934
32.3837
32.9551
32.8864
32.3037
31.2657
29.7848
27.819
25.2564
21.9095
17.6443
22.1093
8.32047
11.5781
14.7587
17.7875
20.7347
23.7315
26.8398
30.1877
33.7886
37.7153
42.0075
46.8
52.108
28.3133
31.5104
17.3077
19.132
21.1802
23.4288
25.8673
28.4797
31.2299
34.0556
36.8564
39.4654
41.6492
43.0812
43.3509
41.9924
38.5304
32.4719
22.9012
5.35327
23.046
30.5696
34.9501
37.4092
38.5625
38.8087
38.3938
37.4714
36.1082
34.323
32.0531
29.13
25.2246
19.9886
21.9262
8.48114
11.7586
15.0179
18.1119
21.1385
24.2231
27.4582
30.9276
34.6724
38.8094
43.3362
48.4216
54.026
29.5866
32.9894
18.2377
20.2761
22.5985
25.1884
28.0496
31.1822
34.5644
38.1541
41.849
45.4748
48.7474
51.2371
52.348
51.3483
47.4589
39.9164
27.4535
10.8171
29.6688
38.176
42.8242
45.1354
45.9441
45.7687
44.9239
43.5885
41.8453
39.7161
37.1549
33.9834
29.7806
23.9505
25.8109
8.61956
11.9206
15.2473
18.4004
21.4962
24.6613
27.9949
31.5788
35.479
39.7716
44.4875
49.8078
55.6779
30.9464
34.3515
19.1336
21.3367
23.9042
26.8056
30.0568
33.6741
37.6587
41.9916
46.5885
51.2854
55.7824
59.5578
61.8188
61.4849
57.3232
48.1638
32.3113
16.3291
37.0343
46.4451
51.2307
53.2754
53.6587
53.0116
51.7045
49.9232
47.7676
45.2702
42.429
39.1415
35.0171
29.2312
33.0054
8.71744
12.0387
15.4152
18.6131
21.76
24.9855
28.3918
32.0626
36.0706
40.4871
45.3737
50.8202
56.9298
32.4072
35.3909
19.8657
22.1729
24.928
28.0713
31.6271
35.6282
40.097
45.0387
50.4008
56.0477
61.6875
66.7634
70.3146
70.8755
66.6354
55.9328
36.6824
21.5012
43.9454
54.0539
58.8668
60.6266
60.6143
59.5599
57.8438
55.6581
53.1042
50.2323
47.1008
43.7493
39.9759
35.0671
47.4154
8.7668
12.0949
15.496
18.7174
21.8909
25.1479
28.5926
32.3102
36.376
40.8621
45.8328
51.3841
57.6107
33.4878
36.0925
20.3229
22.6904
25.5616
28.8541
32.5981
36.8387
41.612
46.9424
52.806
59.0943
65.5419
71.5959
76.1924
77.5438
73.318
61.4632
39.665
25.1999
48.8305
59.3761
64.1931
65.7695
65.5306
64.237
62.2621
59.7979
56.9426
53.7597
50.3663
46.9213
43.3981
39.2181
60.0181
8.75944
12.0818
15.4799
18.699
21.8708
25.1267
28.5708
32.2886
36.3553
40.8432
45.8173
51.3724
57.6012
34.0016
36.299
20.4688
22.8444
25.752
29.0918
32.8955
37.2112
42.0822
47.5371
53.5615
60.0616
66.7776
73.1664
78.1321
79.7759
75.5788
63.3494
40.689
26.636
50.5493
61.2607
66.1003
67.6359
67.3318
65.9727
63.9273
61.3789
58.4074
55.0894
51.5694
48.0549
44.5625
40.4367
59.8721
8.69549
11.9999
15.3676
18.5587
21.7006
24.9228
28.3278
31.9995
36.0109
40.4337
45.3325
50.7875
56.942
33.7459
35.8894
20.2654
22.623
25.4865
28.7696
32.5016
36.7261
41.4791
46.7833
52.6098
58.8459
65.2198
71.1648
75.6245
76.8566
72.6072
60.8424
39.1651
25.448
48.824
59.3319
64.1368
65.6976
65.4434
64.1852
62.2856
59.8935
57.0602
53.8499
50.4171
46.944
43.417
39.2669
60.0302
8.58362
11.8571
15.1695
18.3113
21.3987
24.5584
27.8898
31.4745
35.38
39.6832
44.4147
49.7521
55.6665
32.6445
35.0033
19.7552
22.043
24.7844
27.9093
31.4421
35.4133
39.8431
44.7298
50.0177
55.5579
61.0441
65.9015
69.172
69.4433
65.0128
54.2728
34.958
22.9019
44.1191
53.9064
58.5557
60.2216
60.1901
59.2306
57.6801
55.6446
53.1544
50.2699
47.103
43.721
39.9356
35.0091
44.0399
8.43311
11.6728
14.9125
17.9907
21.0059
24.0825
27.3154
30.7871
34.5325
38.6827
43.2283
48.34
54.0032
30.957
33.7962
18.9793
21.158
23.7053
26.5806
29.7988
33.3727
37.3016
41.5547
46.0406
50.5821
54.8551
58.3276
60.2123
59.4781
54.9853
45.6217
29.4675
19.0961
37.3996
46.1529
50.6015
52.482
52.8396
52.312
51.1956
49.5972
47.5529
45.0992
42.2665
38.9785
34.8688
29.1503
33.3632
8.26135
11.4717
14.6287
17.6374
20.5701
23.5522
26.6647
30.0091
33.6143
37.5525
41.8657
46.6901
52.0377
29.103
32.3008
18.0493
20.0693
22.3667
24.9244
27.7467
30.8257
34.139
37.6298
41.1912
44.6314
47.6536
49.8205
50.5527
49.1658
44.9526
37.1917
24.4277
14.2901
29.9744
37.6723
41.9115
44.0359
44.82
44.7498
44.0805
42.9244
41.3244
39.2887
36.7831
33.6495
29.4855
23.7126
23.8928
8.10041
11.2879
14.3618
17.3092
20.1678
23.0502
26.0824
29.2963
32.7554
36.514
40.615
45.1496
50.2312
27.4724
30.7955
17.1166
18.9293
20.9541
23.1714
25.5692
28.1284
30.8035
33.5326
36.1984
38.6306
40.5881
41.7434
41.7116
40.0665
36.3865
30.2144
20.5495
8.92083
23.0202
29.8209
33.8431
36.1478
37.2947
37.633
37.3715
36.6104
35.3926
33.7217
31.5395
28.6955
24.8917
19.8483
22.5516
7.97391
11.1499
14.1519
17.0541
19.8311
22.6727
25.6102
28.7212
32.0555
35.654
39.5551
43.8042
48.5208
26.6289
29.4892
16.3584
17.966
19.7486
21.665
23.689
25.7902
27.9163
30.0018
31.9437
33.5974
34.7809
35.2688
34.813
33.1515
30.0357
25.1806
17.928
0.335588
17.3388
23.5386
27.3857
29.8092
31.2224
31.8747
31.9271
31.4709
30.556
29.1841
27.3129
24.8458
21.6289
17.5851
22.9663
7.89933
11.0731
14.0263
16.9029
19.6764
22.4768
25.3819
28.4645
31.7778
35.3725
39.2994
43.5525
47.9872
51.6868
28.7159
31.7271
34.7546
37.9615
41.3299
44.7993
48.2886
51.689
54.8602
57.6275
59.7659
60.9963
61.0087
59.488
56.1566
50.7065
42.7177
31.099
8.20077
28.1513
39.2603
46.4101
51.1158
54.0486
55.5947
56.0033
55.4306
53.9416
51.543
48.1962
43.8055
38.2245
31.3603
23.7449
7.84265
11.0277
13.9831
16.8551
19.6231
22.4187
25.3194
28.3987
31.7099
35.3037
39.2329
43.4871
47.9246
51.644
28.4367
31.5092
34.5261
37.7041
41.0335
44.4558
47.8907
51.2295
54.3281
57.0009
59.0159
60.1007
59.9539
58.2583
54.6838
48.8779
40.3271
27.6319
10.9274
30.8814
41.1151
47.9008
52.4157
55.2133
56.628
56.8881
56.1472
54.4904
51.9441
48.4772
44.001
38.3778
31.524
24.1731
7.91797
11.1049
14.1092
17.0068
19.7784
22.6152
25.5485
28.6562
31.9884
35.5857
39.4881
43.7368
48.4621
26.63
29.3441
32.19
35.4936
38.943
42.5673
46.3318
50.1623
53.9478
57.5321
60.6848
63.0952
64.4541
64.4014
62.5668
58.5948
52.017
42.1914
27.4109
16.2737
35.1713
45.4809
52.1945
56.555
59.1476
60.3394
60.3669
59.3937
57.5207
54.7697
51.0654
46.2371
40.0362
32.1575
23.8877
8.04565
11.2438
14.3201
17.263
20.1167
22.9944
26.0227
29.2333
32.6904
36.4476
40.5495
45.0806
50.1728
27.1881
30.151
16.531
18.1839
20.0316
22.0336
24.1666
26.3996
28.687
30.9522
33.0898
34.9464
36.3177
36.9503
36.5602
34.8495
31.5246
26.2442
18.1943
6.15475
19.4767
25.798
29.7419
32.1985
33.5943
34.1987
34.1693
33.6117
32.5693
31.0492
29.0088
26.3414
22.8629
18.4316
23.6596
8.20834
11.4294
14.5892
17.594
20.5223
23.5008
26.6111
29.9529
33.5583
37.4969
41.8145
46.6357
51.9994
28.297
31.553
17.3712
19.2454
21.3571
23.6863
26.2244
28.9491
31.8259
34.7775
37.6875
40.3603
42.5331
43.8313
43.8324
42.0697
38.0947
31.4276
20.9611
10.7715
24.6984
31.6528
35.791
38.1849
39.394
39.7716
39.5107
38.7149
37.4246
35.6482
33.3322
30.3251
26.3127
20.9323
24.1345
8.38246
11.6331
14.8764
17.9518
20.9638
24.0383
27.2707
30.7436
34.4938
38.6487
43.2071
48.3298
54.0218
29.6571
33.1001
18.338
20.4272
22.8232
25.5089
28.4897
31.759
35.2975
39.041
42.8639
46.546
49.7533
51.9861
52.6225
50.9547
46.2976
37.9897
24.6099
15.0384
30.5737
38.2672
42.5998
44.9139
45.9457
46.1168
45.6447
44.615
43.0666
41.0116
38.4296
35.1775
30.8698
24.9084
28.4644
8.53619
11.8209
15.1379
18.2785
21.3645
24.5242
27.8581
31.4479
35.3626
39.6782
44.4323
49.7917
55.7451
31.1013
34.5041
19.2685
21.5289
24.1818
27.1953
30.5871
34.3693
38.5419
43.0591
47.8061
52.5519
56.9109
60.2665
61.7746
60.4147
55.1561
45.0953
28.5405
19.1485
36.422
44.757
49.2079
51.4319
52.3262
52.37
51.7562
50.536
48.7349
46.3912
43.5489
40.1561
35.8676
29.884
34.6536
8.6519
11.9677
15.3408
18.5324
21.6749
24.8996
28.3102
31.9914
36.0177
40.4624
45.3909
50.8858
57.0752
32.572
35.5925
20.0321
22.399
25.2477
28.5144
32.226
36.4092
41.0861
46.2266
51.7391
57.3987
62.7994
67.2421
69.6895
68.7617
62.9765
51.1564
31.3596
23.5079
41.784
50.4545
54.8777
56.9583
57.7254
57.6817
56.9749
55.6083
53.5901
50.9722
47.8716
44.3821
40.3098
34.9331
44.8925
8.7171
12.0542
15.4581
18.6788
21.8525
25.1127
28.5645
32.2945
36.3794
40.8934
45.9009
51.5023
57.7931
33.6838
36.3327
20.4996
22.9299
25.8943
29.3089
33.2058
37.6231
42.5907
48.0943
54.0592
60.2702
66.3259
71.4973
74.6267
74.0335
67.8504
54.6623
32.2225
27.5371
46.0242
54.7762
59.0695
60.9243
61.4702
61.2459
60.3877
58.8843
56.7053
53.8869
50.5994
47.0389
43.1728
38.4151
56.8425
8.72636
12.0698
15.4775
18.7013
21.8776
25.14
28.5934
32.3246
36.41
40.9239
45.9302
51.5302
57.8225
34.2602
36.5011
20.6198
23.0678
26.0574
29.5009
33.432
37.8876
42.8985
48.4577
54.4852
60.7779
66.9465
72.2774
75.6071
75.182
69.0147
55.5581
32.3745
29.1046
47.7923
56.706
60.9793
62.6585
62.9465
62.4444
61.3508
59.6784
57.3935
54.5049
51.1653
47.59
43.7848
39.1903
58.5124
8.67871
12.014
15.3984
18.5991
21.7492
24.9802
28.3954
32.0796
36.1069
40.5503
45.4721
50.965
57.1169
33.959
36.0461
20.4151
22.807
25.727
29.0812
32.8958
37.2008
42.0218
47.3359
53.0607
58.9934
64.7583
69.6899
72.7306
72.3226
66.6637
54.2415
32.6912
26.9044
46.1593
55.3451
59.763
61.4484
61.6103
60.914
59.6308
57.8387
55.5269
52.7025
49.4647
45.9406
42.0156
37.0338
49.1329
8.58005
11.8963
15.2316
18.3872
21.4858
24.6557
27.9972
31.5922
35.509
39.8218
44.5702
49.9234
55.8452
32.8327
35.1412
19.8685
22.1706
24.9409
28.0996
31.6663
35.6589
40.0861
44.9126
50.0412
55.2703
60.2442
64.3618
66.7263
66.1044
61.082
50.3714
31.9079
22.1021
41.4443
50.6438
55.223
57.097
57.3824
56.7346
55.4765
53.736
51.5511
48.9331
45.9081
42.4639
38.2958
32.6401
37.7474
8.44125
11.7345
15.0027
18.099
21.1281
24.2167
27.4587
30.9379
34.6967
38.8513
43.4046
48.5171
54.1696
31.0891
33.9011
19.0521
21.2325
23.7847
26.6631
29.8773
33.4324
37.3175
41.4813
45.8182
50.1253
54.0775
57.1596
58.6543
57.6536
53.1709
44.2498
29.2587
16.2501
34.8673
43.6715
48.3231
50.4802
51.0888
50.728
49.7218
48.2266
46.3101
43.9792
41.2126
37.8705
33.5499
27.5932
30.5009
8.28076
11.554
14.7441
17.775
20.7249
23.7249
26.8399
30.1965
33.81
37.7518
42.067
46.877
52.2342
29.1739
32.3751
18.0989
20.109
22.3968
24.941
27.7411
30.7856
34.0478
37.4649
40.9242
44.2384
47.1289
49.1757
49.8536
48.5358
44.5755
37.3214
25.5793
10.3833
27.9584
36.0772
40.6486
43.0499
44.0298
44.0529
43.4119
42.2563
40.6659
38.6461
36.1412
32.973
28.7568
23.0587
24.6365
8.1278
11.3873
14.4966
17.4691
20.3437
23.2507
26.292
29.5161
32.9821
36.7439
40.8447
45.3681
50.4482
27.5164
30.8733
17.1523
18.9592
20.9693
23.1689
25.5453
28.0733
30.7151
33.4026
36.0251
38.4207
40.3651
41.546
41.6009
40.1215
36.698
30.8935
21.8511
4.46257
21.8152
29.1306
33.4844
36.0188
37.2992
37.6831
37.4056
36.5979
35.3294
33.6137
31.3916
28.5127
24.6964
19.7104
22.917
8.00446
11.2622
14.2983
17.227
20.0365
22.8924
25.8444
28.9668
32.31
35.9139
39.8175
44.062
48.7676
26.7424
29.5752
16.4054
18.004
19.7758
21.6801
23.6912
25.7764
27.894
29.9687
31.9146
33.5866
34.8148
35.3749
35.0272
33.5073
30.5473
25.86
18.8294
4.98816
16.9855
23.6158
27.7351
30.3245
31.8196
32.4822
32.4952
31.9747
30.9855
29.539
27.5982
25.0761
21.8231
17.7821
23.5902
7.93063
11.1954
14.178
17.0948
19.8874
22.7072
25.6283
28.7231
32.0463
35.6472
39.5786
43.8304
48.261
51.912
28.8159
31.795
34.8081
38.0032
41.3615
44.8247
48.3178
51.7422
54.9688
57.8192
60.0618
61.4227
61.5908
60.257
57.1065
51.7926
43.8293
32.0254
8.72185
29.071
40.6083
48.0329
52.9148
55.9156
57.4278
57.7316
57.0128
55.3578
52.7996
49.3096
44.8014
39.138
32.2305
24.6237
33.8133
17.527
16.3404
37.1631
19.2719
17.9503
40.6712
21.1604
19.7356
44.3347
23.1636
21.6553
48.0973
25.2526
23.6832
51.8618
27.3841
25.7882
55.4944
29.4925
27.9215
58.8047
31.4891
30.0101
61.5372
33.236
31.9595
63.3902
34.5609
33.6194
64.0332
35.2478
34.808
63.1128
35.0526
35.2994
60.2886
33.7141
34.845
55.1791
30.9809
33.1817
47.3326
26.5901
30.0611
35.9732
20.0457
25.1984
17.6922
8.86428
17.9356
25.0645
15.1695
0.608487
38.5009
22.2909
17.3554
46.6821
26.5975
23.5533
52.0223
29.3229
27.3972
55.4111
30.9557
29.8169
57.2942
31.7746
31.2259
57.9738
31.9607
31.8738
57.6373
31.6211
31.9219
56.3959
30.8163
31.4626
54.2887
29.5587
30.5456
51.2761
27.8174
29.1719
47.2474
25.5111
27.299
41.9768
22.497
24.8305
35.1681
18.6432
21.6124
26.829
13.8268
17.5668
17.721
18.4449
17.101
19.5115
20.4201
18.9186
21.4619
22.5956
20.9461
23.5438
24.9558
23.1683
25.7297
27.4828
25.5729
27.9778
30.1432
28.1383
30.224
32.876
30.8227
32.3736
35.581
33.5609
34.2877
38.1018
36.236
35.7805
40.2146
38.678
36.6162
41.6138
40.6463
36.5236
41.924
41.8094
35.211
40.7237
41.7823
32.39
37.5879
40.1374
27.7604
32.0847
36.4527
20.7772
23.4781
30.2724
8.4896
6.66393
20.6014
16.3757
20.6038
8.86771
23.6344
28.4484
23.0174
28.0033
33.0337
29.826
30.7175
35.7012
33.8492
32.3003
37.0983
36.1527
33.0595
37.6121
37.298
33.18
37.4846
37.6335
32.7782
36.8405
37.3689
31.9093
35.7329
36.6057
30.5846
34.1766
35.3865
28.7716
32.1299
33.7139
26.3777
29.4713
31.5299
23.2314
25.9417
28.6843
19.146
21.2007
24.8792
13.6651
14.9441
19.8342
18.7117
19.5287
18.0371
20.7503
21.7628
20.0616
23.006
24.2626
22.3628
25.4656
27.0256
24.9281
28.1155
30.0499
27.7583
30.9244
33.3196
30.8458
33.8357
36.7866
34.1706
36.7477
40.3591
37.6746
39.5008
43.867
41.2504
41.8562
47.044
44.7057
43.4859
49.4873
47.7412
43.9735
50.6485
49.9222
42.844
49.8604
50.662
39.6128
46.4125
49.2752
33.7923
39.6037
45.0539
24.5703
28.363
37.2784
5.74569
2.85772
24.5018
22.1651
27.1935
14.2436
30.2602
36.158
29.9775
34.9309
41.0988
37.683
37.5811
43.6628
41.9226
38.9016
44.7261
44.044
39.3249
44.8374
44.8279
39.101
44.3033
44.756
38.3631
43.259
44.0851
37.1658
41.767
42.9266
35.5236
39.8382
41.3254
33.3947
37.4565
39.2878
30.6536
34.5036
36.7799
27.0151
30.6515
33.6445
22.0603
25.3111
29.4797
15.0634
17.5009
23.7066
19.8003
20.568
18.969
22.0961
23.0365
21.1525
24.6747
25.8366
23.7055
27.5365
28.9757
26.5882
30.6842
32.47
29.8156
34.1058
36.3251
33.4007
37.7609
40.5175
37.3433
41.5575
44.976
41.6115
45.331
49.5456
46.1166
48.8056
53.9446
50.6764
51.5569
57.6978
54.9673
52.9908
60.0778
58.4558
52.3662
60.1027
60.3479
48.88
56.6383
59.6085
41.7425
48.5715
55.0954
29.789
34.4478
45.6977
4.84747
8.32449
29.4975
28.9445
34.2072
19.1476
38.2303
44.5109
37.4521
43.2645
49.8189
46.1971
45.7907
52.2126
50.6352
46.757
52.8715
52.5055
46.7556
52.5234
52.8599
46.1076
51.5365
52.3282
44.955
50.0513
51.209
43.3569
48.1155
49.6102
41.3262
45.7591
47.5642
38.8578
43.0166
45.1071
35.8473
39.8585
42.2709
31.9701
36.0146
38.981
26.5921
30.7776
34.8725
18.5897
22.6565
29.1588
20.8028
21.4147
19.7465
23.3218
24.0632
22.0387
26.1878
27.0992
24.7863
29.4106
30.5364
27.9191
33.0091
34.4058
31.462
36.9967
38.7345
35.4456
41.3538
43.5269
39.8893
46.0204
48.744
44.7956
50.8466
54.264
50.1029
55.5512
59.823
55.6647
59.6512
64.9298
61.1694
62.3786
68.7195
66.0438
62.6679
69.8824
69.3176
59.2585
66.7479
69.57
50.9109
57.6628
65.0934
36.0757
40.8268
54.2823
9.12323
10.8894
34.8583
35.9048
40.5584
23.1511
46.552
52.1722
44.2642
51.9482
57.8172
54.0118
54.2985
60.057
58.6291
54.8548
60.3439
60.2692
54.3914
59.564
60.2249
53.2929
58.1408
59.2584
51.6971
56.2215
57.7042
49.6489
53.8395
55.6683
47.1764
51.0407
53.1756
44.3411
47.9271
50.2858
41.1391
44.5987
47.1139
37.3369
40.9606
43.73
32.2229
36.4329
39.9492
23.7107
28.808
35.0387
21.5845
21.9697
20.2572
24.2673
24.7315
22.6188
27.3485
27.9166
25.4886
30.8442
31.5418
28.7797
34.7876
35.6509
32.5217
39.2093
40.284
36.7581
44.1212
45.4674
41.5284
49.4923
51.1908
46.8491
55.2096
57.366
52.6968
61.0186
63.7643
58.958
66.4289
69.912
65.3508
70.555
74.8826
71.3143
72.0108
77.0953
75.7722
68.9862
74.3603
76.967
59.6896
64.5327
72.6396
42.2558
45.6267
60.7626
11.336
12.4693
38.8983
41.8989
45.0439
25.932
53.7931
57.5625
49.0705
59.5095
63.4417
59.5048
61.7229
65.607
64.2554
61.9375
65.6797
65.7743
61.0674
64.6074
65.4941
59.5462
62.8429
64.2221
57.5266
60.5645
62.3175
55.0418
57.8341
59.9217
52.1441
54.7
57.0858
48.9463
51.2997
53.8698
45.5777
47.8223
50.4312
41.9964
44.3342
46.9553
37.7239
40.4492
43.4314
31.2077
34.8123
39.2941
22.0573
22.1824
20.4598
24.8354
24.9843
22.8395
28.0424
28.2221
25.7531
31.6965
31.9153
29.1006
35.8413
36.1091
32.9148
40.5204
40.8533
37.2423
45.7639
46.1777
42.1289
51.5651
52.0883
47.6026
57.8427
58.5099
53.6508
64.3754
65.2345
60.1752
70.6941
71.797
66.9151
75.8669
77.2659
73.3191
78.2627
79.9262
78.2806
75.5931
77.3329
79.8728
65.6292
67.1403
75.5717
46.3689
47.3436
63.1961
12.7895
13.1895
40.3056
45.753
46.7358
27.2367