# Forces      
# CofR        : (0.000000e+00 0.000000e+00 0.000000e+00)
# Time        forces(pressure viscous)	moments(pressure viscous)
0             	((2.664535e-15 -6.039613e-14 -1.598721e-14) (0.000000e+00 0.000000e+00 0.000000e+00)) ((7.524419e-06 -2.505057e-05 -4.544243e-05) (0.000000e+00 0.000000e+00 0.000000e+00))
1e-05         	((1.188367e-03 1.402549e+02 4.657437e-02) (-1.563732e-05 -2.170775e-02 -6.180245e-05)) ((-1.042255e-03 -4.116839e+00 5.989326e-03) (-6.752357e-07 -9.572616e-03 -4.240379e-07))
1.39011e-05   	((1.986690e-03 1.179826e+01 1.268082e-02) (-1.479228e-05 -2.286743e-02 -4.898794e-05)) ((-8.946671e-05 -3.259570e-01 3.609083e-03) (-4.308645e-07 -1.056683e-02 2.901962e-07))
1.81594e-05   	((1.875282e-03 9.341879e+00 7.673347e-03) (-1.567565e-05 -2.353848e-02 -5.501732e-05)) ((-4.649040e-05 -2.266799e-01 1.492804e-03) (-3.310126e-07 -1.022045e-02 1.099935e-07))
2.261e-05     	((1.626493e-03 9.176108e+00 6.330708e-03) (-1.440628e-05 -2.387917e-02 -6.094238e-05)) ((-5.237075e-05 -2.142329e-01 1.308676e-03) (-2.314517e-07 -9.889067e-03 3.300300e-08))
2.71211e-05   	((1.318289e-03 9.131245e+00 5.157173e-03) (-1.444055e-05 -2.403959e-02 -6.636259e-05)) ((-4.029721e-05 -2.084491e-01 9.411285e-04) (-1.627359e-07 -9.584195e-03 -9.478812e-09))
3.16651e-05   	((1.283318e-03 9.119355e+00 7.969586e-03) (-1.360642e-05 -2.407534e-02 -7.079515e-05)) ((-6.829066e-05 -2.046587e-01 1.168647e-03) (-1.175114e-07 -9.302172e-03 -7.049360e-09))
3.62429e-05   	((1.107049e-03 9.132413e+00 2.351484e-03) (-1.286644e-05 -2.401488e-02 -7.405568e-05)) ((6.059382e-06 -2.022483e-01 5.197224e-04) (-1.107076e-07 -9.038497e-03 7.313111e-09))
4.08617e-05   	((1.179787e-03 9.142146e+00 3.419166e-03) (-1.237956e-05 -2.387579e-02 -7.889436e-05)) ((3.149919e-06 -2.000958e-01 6.307420e-04) (-1.386004e-07 -8.789698e-03 1.454105e-07))
4.54987e-05   	((1.205001e-03 9.156386e+00 2.310800e-03) (-1.206609e-05 -2.367384e-02 -8.818899e-05)) ((1.762732e-05 -1.983901e-01 5.336787e-04) (-1.684556e-07 -8.556517e-03 2.528887e-07))
5.01485e-05   	((1.112131e-03 9.156642e+00 1.853417e-03) (-1.243315e-05 -2.342178e-02 -9.793743e-05)) ((3.134443e-05 -1.965452e-01 4.453692e-04) (-2.059086e-07 -8.337825e-03 3.768053e-07))
5.48141e-05   	((1.155093e-03 9.168608e+00 3.146052e-03) (-1.302399e-05 -2.312936e-02 -1.071442e-04)) ((1.909754e-05 -1.952176e-01 5.700160e-04) (-2.508427e-07 -8.131762e-03 4.244675e-07))
5.95002e-05   	((1.151343e-03 9.179464e+00 5.257648e-03) (-1.304685e-05 -2.280282e-02 -1.148112e-04)) ((-2.667385e-06 -1.940362e-01 6.951296e-04) (-2.854287e-07 -7.937674e-03 4.518686e-07))
6.42167e-05   	((1.326109e-03 9.182708e+00 2.538853e-03) (-1.567936e-05 -2.245364e-02 -1.140017e-04)) ((6.299885e-05 -1.928130e-01 4.631563e-04) (-2.599427e-07 -7.755895e-03 1.613248e-07))
6.89754e-05   	((1.040373e-03 9.203021e+00 3.616707e-03) (-1.475988e-05 -2.207059e-02 -1.223317e-04)) ((1.885386e-05 -1.922875e-01 4.613711e-04) (-2.854169e-07 -7.584591e-03 3.101567e-07))
7.37861e-05   	((1.032557e-03 9.230626e+00 3.995586e-03) (-1.377499e-05 -2.166683e-02 -1.293553e-04)) ((1.768678e-05 -1.920936e-01 4.772109e-04) (-2.927360e-07 -7.422812e-03 4.283042e-07))
7.86575e-05   	((1.034763e-03 9.265194e+00 3.348391e-03) (-1.291247e-05 -2.124579e-02 -1.352070e-04)) ((2.558662e-05 -1.921552e-01 3.963053e-04) (-3.010593e-07 -7.270267e-03 6.148969e-07))
8.35956e-05   	((1.028743e-03 9.296191e+00 3.378635e-03) (-1.213735e-05 -2.081269e-02 -1.505907e-04)) ((2.734498e-05 -1.921259e-01 2.923803e-04) (-3.212490e-07 -7.127448e-03 9.553063e-07))
8.86042e-05   	((1.209610e-03 9.320618e+00 4.410778e-03) (-1.203005e-05 -2.037395e-02 -1.715772e-04)) ((2.723866e-05 -1.919614e-01 7.477145e-04) (-3.438628e-07 -6.995088e-03 1.872579e-06))
9.36847e-05   	((9.112957e-04 9.333309e+00 7.905346e-03) (-1.009445e-05 -1.993387e-02 -1.829238e-04)) ((-6.548314e-05 -1.913812e-01 8.543387e-04) (-4.300958e-07 -6.869964e-03 2.683657e-06))
9.88364e-05   	((1.109083e-03 9.351283e+00 5.267671e-03) (-1.013868e-05 -1.947720e-02 -1.761522e-04)) ((-5.853911e-06 -1.911025e-01 5.765773e-04) (-4.223855e-07 -6.747822e-03 2.682376e-06))
0.000104054   	((1.162441e-03 9.364011e+00 4.735507e-03) (-9.721638e-06 -1.902086e-02 -1.634014e-04)) ((1.038014e-05 -1.906375e-01 6.106087e-04) (-4.358217e-07 -6.631930e-03 2.784615e-06))
0.000109332   	((9.831893e-04 9.384660e+00 4.324385e-03) (-9.833590e-06 -1.856753e-02 -1.630698e-04)) ((1.744543e-05 -1.904400e-01 3.962061e-04) (-4.450843e-07 -6.520103e-03 2.977284e-06))
0.000114666   	((1.013247e-03 9.402461e+00 6.103259e-03) (-9.920062e-06 -1.812555e-02 -1.515683e-04)) ((-1.247362e-06 -1.902043e-01 5.690852e-04) (-4.481782e-07 -6.416377e-03 2.896682e-06))
0.000120054   	((9.741324e-04 9.421068e+00 5.958923e-03) (-9.956971e-06 -1.768985e-02 -1.458198e-04)) ((-2.883539e-06 -1.900393e-01 5.373984e-04) (-4.543355e-07 -6.314673e-03 2.945450e-06))
0.000125496   	((1.042673e-03 9.447570e+00 6.075148e-03) (-1.091957e-05 -1.726488e-02 -1.727512e-04)) ((1.246445e-05 -1.901288e-01 6.633646e-04) (-4.708917e-07 -6.221607e-03 3.357693e-06))
0.000130994   	((1.034147e-03 9.469067e+00 5.823765e-03) (-1.165094e-05 -1.684617e-02 -1.570298e-04)) ((1.020559e-05 -1.900852e-01 5.511925e-04) (-4.723994e-07 -6.129019e-03 3.232689e-06))
0.000136546   	((1.014657e-03 9.485312e+00 6.656440e-03) (-1.240939e-05 -1.643905e-02 -1.508085e-04)) ((1.953547e-07 -1.899508e-01 4.699733e-04) (-4.779865e-07 -6.039214e-03 3.035691e-06))
0.000142149   	((9.710400e-04 9.496140e+00 6.243288e-03) (-1.220526e-05 -1.603215e-02 -1.530062e-04)) ((-8.834383e-06 -1.896117e-01 4.986821e-04) (-4.899727e-07 -5.950184e-03 3.272067e-06))
0.0001478     	((9.042925e-04 9.509784e+00 6.481368e-03) (-1.144034e-05 -1.563720e-02 -1.453531e-04)) ((-1.915057e-05 -1.893709e-01 5.671179e-04) (-4.930029e-07 -5.865016e-03 3.344542e-06))
0.000153494   	((8.761442e-04 9.523706e+00 6.478865e-03) (-1.077359e-05 -1.525611e-02 -1.497016e-04)) ((-1.639117e-05 -1.891857e-01 4.885089e-04) (-4.862712e-07 -5.786773e-03 3.429798e-06))
0.000159223   	((8.823266e-04 9.530880e+00 6.563278e-03) (-1.000813e-05 -1.488348e-02 -1.537267e-04)) ((-1.935424e-05 -1.888420e-01 4.939126e-04) (-4.762903e-07 -5.706951e-03 3.559108e-06))
0.000164981   	((9.215835e-04 9.542840e+00 6.549195e-03) (-8.996673e-06 -1.452876e-02 -1.478507e-04)) ((-1.962231e-05 -1.886780e-01 5.411957e-04) (-4.648013e-07 -5.632812e-03 3.386999e-06))
0.000170759   	((9.176012e-04 9.552698e+00 6.773661e-03) (-9.086991e-06 -1.418464e-02 -1.351349e-04)) ((-1.804306e-05 -1.884933e-01 4.489259e-04) (-4.410125e-07 -5.560169e-03 2.956690e-06))
0.000176553   	((1.047331e-03 9.565239e+00 6.699024e-03) (-1.089620e-05 -1.384682e-02 -1.114409e-04)) ((-3.307194e-05 -1.883738e-01 7.421632e-04) (-4.637987e-07 -5.491531e-03 2.878517e-06))
0.000182359   	((8.571430e-04 9.579907e+00 6.412698e-03) (-8.548258e-06 -1.352018e-02 -1.295150e-04)) ((1.864123e-06 -1.883459e-01 3.448935e-04) (-4.424996e-07 -5.425386e-03 3.268649e-06))
0.000188174   	((8.643348e-04 9.590637e+00 7.240795e-03) (-8.901272e-06 -1.320745e-02 -1.504069e-04)) ((-2.328996e-05 -1.882737e-01 6.338376e-04) (-4.351841e-07 -5.361843e-03 3.885683e-06))
0.000193995   	((1.021662e-03 9.607198e+00 6.984490e-03) (-9.857577e-06 -1.290077e-02 -1.482701e-04)) ((5.828155e-08 -1.882905e-01 7.306059e-04) (-4.174569e-07 -5.300502e-03 4.283225e-06))
0.000199823   	((1.058030e-03 9.619767e+00 7.299504e-03) (-9.974364e-06 -1.260493e-02 -1.576984e-04)) ((-1.851373e-05 -1.882601e-01 7.403986e-04) (-4.180634e-07 -5.242738e-03 4.849375e-06))
0.000205659   	((1.008507e-03 9.629982e+00 6.657026e-03) (-9.570716e-06 -1.232617e-02 -1.475540e-04)) ((-1.629773e-05 -1.882082e-01 6.582792e-04) (-3.862019e-07 -5.188641e-03 4.492972e-06))
0.000211504   	((1.101350e-03 9.636936e+00 6.697888e-03) (-1.206769e-05 -1.205187e-02 -1.390072e-04)) ((-1.684963e-05 -1.880992e-01 6.210071e-04) (-3.711033e-07 -5.134413e-03 4.114351e-06))
0.000217364   	((9.930852e-04 9.649884e+00 6.384910e-03) (-1.135434e-05 -1.179093e-02 -1.604328e-04)) ((-1.002732e-05 -1.881494e-01 5.036187e-04) (-4.014760e-07 -5.080106e-03 3.894257e-06))
0.00022324    	((1.148007e-03 9.665155e+00 7.990243e-03) (-1.124630e-05 -1.153100e-02 -1.357983e-04)) ((-2.768012e-05 -1.884766e-01 1.044164e-03) (-4.011008e-07 -5.031521e-03 4.123737e-06))
0.000229137   	((-6.195544e-04 9.677470e+00 2.447556e-03) (-1.055651e-05 -1.128957e-02 -1.282883e-04)) ((4.488409e-05 -1.887234e-01 -9.789346e-04) (-3.722257e-07 -4.990732e-03 4.954298e-06))
0.000235055   	((-1.682620e-04 9.702341e+00 5.752971e-03) (-1.610359e-05 -1.106429e-02 -1.191053e-04)) ((8.871642e-05 -1.893521e-01 -2.940778e-04) (-3.542105e-07 -4.949347e-03 4.640295e-06))
0.000240997   	((-8.585060e-04 9.666011e+00 8.213007e-04) (-1.457055e-05 -1.082156e-02 -1.452397e-04)) ((-5.317415e-05 -1.881803e-01 -2.165213e-03) (-3.800161e-07 -4.906877e-03 3.660360e-06))
0.000246961   	((-5.558293e-04 9.669512e+00 2.673218e-03) (-1.187511e-05 -1.059154e-02 -1.924869e-04)) ((-5.884496e-05 -1.880012e-01 -1.584742e-03) (-3.896274e-07 -4.866773e-03 3.337015e-06))
0.000252948   	((-2.507700e-04 9.684418e+00 2.866243e-03) (-1.304689e-05 -1.036934e-02 -2.159367e-04)) ((-9.544656e-06 -1.882587e-01 -1.093647e-03) (-4.056850e-07 -4.825358e-03 4.081396e-06))
0.000258958   	((8.385918e-04 9.687633e+00 7.467927e-03) (-1.009954e-05 -1.015513e-02 -2.276401e-04)) ((-2.597525e-06 -1.879879e-01 5.997469e-04) (-4.004811e-07 -4.787787e-03 2.886602e-06))
0.00026499    	((-8.172551e-05 9.674086e+00 3.627808e-03) (-8.713787e-06 -9.960563e-03 -1.889279e-04)) ((-1.634779e-05 -1.871635e-01 -9.942849e-04) (-3.686532e-07 -4.746342e-03 3.402489e-06))
0.000271042   	((5.259311e-04 9.681432e+00 7.326427e-03) (-9.815723e-06 -9.746269e-03 -1.555058e-04)) ((9.089123e-06 -1.874546e-01 7.029581e-04) (-3.921388e-07 -4.705898e-03 3.519711e-06))
0.000277116   	((1.904385e-03 9.695317e+00 1.086928e-02) (-2.076299e-05 -9.539000e-03 -9.626527e-05)) ((2.752627e-05 -1.874532e-01 1.844412e-03) (-3.246140e-07 -4.671608e-03 3.379732e-06))
0.00028321    	((-4.943571e-03 9.751751e+00 2.364191e-03) (-2.037311e-05 -9.353067e-03 -1.430059e-04)) ((-2.415926e-04 -1.884576e-01 -4.201044e-03) (-5.549054e-07 -4.640481e-03 2.783556e-06))
0.000289326   	((-2.702582e-03 9.692356e+00 9.215093e-04) (-1.498046e-05 -9.163979e-03 -1.571743e-04)) ((-1.311431e-04 -1.875083e-01 -3.477458e-03) (-5.068169e-07 -4.603295e-03 4.173514e-06))
0.000295462   	((-4.873949e-03 9.742618e+00 -1.075188e-02) (-1.904387e-05 -8.960633e-03 -1.593641e-04)) ((-1.146475e-04 -1.890403e-01 -5.126534e-03) (-4.645657e-07 -4.568875e-03 3.449977e-06))
0.000301618   	((-1.446553e-03 9.739532e+00 -4.252718e-03) (-1.950341e-05 -8.768309e-03 -1.715250e-04)) ((-5.496486e-05 -1.888521e-01 -2.358471e-03) (-4.915775e-07 -4.535513e-03 4.091905e-06))
0.000307796   	((1.553970e-04 9.688417e+00 -9.021400e-04) (-8.821197e-06 -8.584664e-03 -1.828404e-04)) ((-2.915056e-05 -1.874938e-01 -1.325476e-03) (-5.721944e-07 -4.500874e-03 3.486028e-06))
0.000313997   	((1.511407e-03 9.665606e+00 8.291448e-03) (-3.020188e-06 -8.402137e-03 -1.798624e-04)) ((2.802357e-05 -1.867831e-01 9.494678e-04) (-5.672091e-07 -4.468897e-03 3.269334e-06))
0.000320225   	((4.599011e-04 9.719672e+00 5.172491e-03) (8.264786e-06 -8.231863e-03 -2.119395e-04)) ((-2.363387e-05 -1.879147e-01 -1.364984e-03) (-4.873354e-07 -4.438827e-03 4.545997e-06))
0.000326481   	((2.122009e-03 9.688200e+00 5.891627e-03) (1.177096e-05 -8.070365e-03 -2.109945e-04)) ((3.933093e-05 -1.873789e-01 1.433670e-03) (-5.533339e-07 -4.409499e-03 3.420601e-06))
0.000332766   	((1.847348e-03 9.684647e+00 9.139852e-03) (1.282719e-05 -7.906682e-03 -2.325556e-04)) ((6.090188e-05 -1.874368e-01 1.895961e-03) (-5.531622e-07 -4.383195e-03 3.316099e-06))
0.000339079   	((2.058203e-03 9.676947e+00 1.820264e-02) (1.203159e-05 -7.765774e-03 -2.478995e-04)) ((4.335720e-05 -1.875437e-01 3.426474e-03) (-6.677016e-07 -4.356948e-03 1.008563e-06))
0.000345423   	((3.843213e-04 9.709650e+00 1.417042e-02) (1.576422e-05 -7.626124e-03 -1.991718e-04)) ((9.967539e-05 -1.890375e-01 2.263601e-03) (-5.671305e-07 -4.336726e-03 3.042390e-06))
0.0003518     	((2.701206e-03 9.733634e+00 2.751446e-02) (1.146265e-05 -7.483840e-03 -1.864421e-04)) ((1.188212e-04 -1.899618e-01 5.820780e-03) (-4.934540e-07 -4.321852e-03 3.647830e-06))
0.000358209   	((-1.868696e-03 9.737123e+00 8.334240e-03) (5.041978e-06 -7.372680e-03 -2.199414e-04)) ((5.459971e-05 -1.899338e-01 -8.768888e-04) (-4.811267e-07 -4.309798e-03 4.000649e-06))
0.000364653   	((-4.919024e-03 9.674479e+00 -2.890684e-02) (3.459751e-05 -7.280077e-03 -2.156095e-04)) ((-2.147881e-04 -1.901901e-01 -7.967615e-03) (-4.157150e-07 -4.291157e-03 8.041800e-06))
0.000371128   	((-2.149499e-03 9.611348e+00 -8.778775e-03) (2.936604e-05 -7.143647e-03 -1.820682e-04)) ((-4.463783e-05 -1.872911e-01 -3.923957e-03) (-2.772577e-07 -4.267541e-03 8.641781e-06))
0.000377639   	((3.797149e-03 9.640341e+00 1.008815e-03) (1.203134e-05 -7.004671e-03 -1.947805e-04)) ((1.862201e-05 -1.871209e-01 5.143222e-05) (-2.992898e-07 -4.248025e-03 6.288136e-06))
0.000384184   	((2.964202e-03 9.701143e+00 1.152896e-02) (1.583768e-05 -6.898798e-03 -1.647701e-04)) ((3.226033e-05 -1.890458e-01 1.256319e-03) (-3.113382e-07 -4.233819e-03 9.911804e-07))
0.000390761   	((6.920110e-03 9.724621e+00 3.274938e-02) (1.425487e-05 -6.734671e-03 -1.169435e-04)) ((1.272059e-04 -1.899573e-01 6.396842e-03) (-2.279176e-07 -4.220995e-03 -7.537093e-07))
0.000397369   	((4.432592e-03 9.653653e+00 1.422706e-02) (1.790879e-05 -6.580506e-03 -1.230751e-04)) ((2.682511e-05 -1.879411e-01 2.600076e-03) (-1.313253e-07 -4.201520e-03 -6.870279e-07))
0.000404009   	((-1.062386e-04 9.607450e+00 1.117936e-02) (8.505269e-06 -6.444757e-03 -1.074875e-04)) ((-1.271360e-04 -1.866253e-01 -7.576534e-04) (-1.156688e-07 -4.177687e-03 6.996455e-07))
0.000410622   	((-2.134954e-03 9.654829e+00 -3.666542e-03) (1.081257e-05 -6.312547e-03 -1.685971e-04)) ((-2.202132e-04 -1.876714e-01 -5.395647e-03) (-2.429482e-07 -4.160406e-03 1.382379e-06))
0.000417207   	((-3.166701e-04 9.674480e+00 4.996162e-03) (6.107923e-06 -6.190114e-03 -1.466545e-04)) ((-9.731421e-05 -1.886023e-01 -6.837277e-04) (-5.481188e-08 -4.143751e-03 2.632012e-06))
0.000423768   	((4.890279e-03 9.668152e+00 2.764868e-02) (-5.543472e-06 -6.074777e-03 -9.851652e-05)) ((1.509122e-04 -1.885954e-01 5.593620e-03) (4.583084e-08 -4.126759e-03 2.066901e-06))
0.000430314   	((3.036634e-03 9.652157e+00 3.322802e-02) (-7.913836e-06 -5.938604e-03 -2.886061e-05)) ((1.007874e-04 -1.886434e-01 4.654708e-03) (3.315060e-07 -4.109996e-03 2.939038e-06))
0.000436854   	((-8.077213e-04 9.594569e+00 1.914792e-02) (-1.359872e-05 -5.835224e-03 1.528328e-05)) ((-1.391509e-04 -1.873030e-01 4.130111e-04) (4.090886e-07 -4.095421e-03 1.542158e-06))
0.000443393   	((4.606876e-03 9.646083e+00 4.576068e-02) (-2.618910e-05 -5.779508e-03 1.500231e-04)) ((9.855186e-05 -1.891581e-01 7.415040e-03) (4.520031e-07 -4.085884e-03 -3.563776e-06))
0.000449937   	((-5.321202e-03 9.518980e+00 2.498073e-02) (-2.906834e-05 -5.679658e-03 2.432434e-04)) ((-2.826140e-04 -1.872085e-01 -2.847528e-03) (6.633550e-07 -4.076637e-03 -3.670171e-06))
0.00045649    	((-3.109946e-03 9.559246e+00 2.213146e-02) (-3.006144e-05 -5.569758e-03 2.761697e-04)) ((-2.181472e-04 -1.875810e-01 -1.264262e-03) (8.582752e-07 -4.059417e-03 -2.893019e-06))
0.000463068   	((-4.891151e-03 9.550127e+00 5.325347e-03) (-3.347889e-05 -5.462376e-03 3.160013e-04)) ((-2.777156e-04 -1.869611e-01 -4.008486e-03) (9.779854e-07 -4.043039e-03 -2.231993e-06))
0.000469655   	((-8.680176e-03 9.556707e+00 -1.482088e-03) (-3.802325e-05 -5.373082e-03 3.601771e-04)) ((-2.376459e-04 -1.873602e-01 -7.557854e-03) (1.134803e-06 -4.029336e-03 -3.719058e-07))
0.000476262   	((-2.275074e-03 9.609439e+00 1.563295e-02) (-4.169759e-05 -5.279402e-03 4.181584e-04)) ((-9.161823e-05 -1.884601e-01 -8.178673e-04) (1.240672e-06 -4.020054e-03 -5.154664e-07))
0.000482968   	((-6.412799e-03 9.570712e+00 -5.416975e-03) (-4.174442e-05 -5.211950e-03 3.946520e-04)) ((-2.839718e-04 -1.880367e-01 -6.676119e-03) (1.270901e-06 -4.011469e-03 1.005343e-06))
0.000489568   	((-3.068156e-03 9.658639e+00 6.637307e-03) (-6.152360e-05 -5.130878e-03 3.985330e-04)) ((-1.897301e-04 -1.916427e-01 -3.645183e-03) (1.248660e-06 -4.009594e-03 -4.621095e-07))
0.000496317   	((-2.110423e-03 9.618977e+00 2.329209e-02) (-5.724756e-05 -5.098920e-03 4.850664e-04)) ((-2.439913e-04 -1.911910e-01 -2.912046e-03) (1.268650e-06 -4.005554e-03 -1.304013e-06))
0.000503064   	((1.070936e-03 9.582569e+00 2.437606e-02) (-6.588843e-05 -5.056420e-03 6.059840e-04)) ((-1.189283e-04 -1.902917e-01 7.928413e-04) (1.199695e-06 -4.005578e-03 -6.980741e-06))
0.000509808   	((2.122561e-03 9.671913e+00 2.626232e-02) (-7.610928e-05 -5.045806e-03 6.287194e-04)) ((-2.355423e-04 -1.930396e-01 2.616279e-05) (1.150238e-06 -3.992388e-03 -1.161894e-05))
0.000516547   	((-3.856130e-03 9.625971e+00 -6.012392e-03) (-7.559953e-05 -4.971593e-03 6.363804e-04)) ((-4.636990e-04 -1.914258e-01 -5.700992e-03) (1.013986e-06 -3.990856e-03 -1.236201e-05))
0.000523278   	((-1.081680e-03 9.669791e+00 4.081433e-03) (-1.114444e-04 -4.893856e-03 5.947108e-04)) ((-3.450845e-04 -1.940106e-01 -2.167962e-03) (1.539509e-06 -3.994556e-03 -3.830954e-06))
0.000529999   	((6.475291e-03 9.568395e+00 4.457532e-02) (-9.640797e-05 -4.767810e-03 6.645057e-04)) ((2.162563e-04 -1.915879e-01 9.720783e-03) (1.757379e-06 -3.995772e-03 -1.208536e-06))
0.000536718   	((8.913331e-04 9.522017e+00 2.988972e-02) (-9.817138e-05 -4.701220e-03 6.401668e-04)) ((6.830822e-05 -1.905635e-01 3.296788e-03) (1.612844e-06 -3.991871e-03 -5.335567e-06))
0.00054343    	((2.014096e-03 9.598495e+00 2.368500e-02) (-1.105489e-04 -4.684378e-03 5.893764e-04)) ((-7.548527e-05 -1.932695e-01 3.248063e-03) (1.336933e-06 -3.997886e-03 -9.612397e-06))
0.00055009    	((-5.703487e-03 9.574325e+00 6.947610e-03) (-1.064373e-04 -4.717051e-03 5.400433e-04)) ((-1.472372e-04 -1.940812e-01 -2.544819e-03) (1.064218e-06 -4.002742e-03 -1.474038e-05))
0.000556792   	((-1.077487e-02 9.410510e+00 -5.454451e-03) (-1.165953e-04 -4.701486e-03 4.413105e-04)) ((-1.976155e-04 -1.902755e-01 -5.769665e-03) (1.358472e-06 -4.002020e-03 -5.680188e-06))
0.000563489   	((-1.166341e-02 9.363491e+00 -2.264926e-02) (-1.080167e-04 -4.629297e-03 3.369353e-04)) ((-2.534361e-04 -1.888269e-01 -1.080071e-02) (1.331548e-06 -4.008242e-03 -4.964197e-06))
0.00057018    	((-1.115686e-02 9.491955e+00 -1.544611e-02) (-7.060965e-05 -4.467470e-03 3.346122e-04)) ((-2.732767e-04 -1.916365e-01 -8.608625e-03) (1.151478e-06 -3.998198e-03 -2.712007e-06))
0.000576865   	((-7.307147e-03 9.441672e+00 -1.273354e-02) (-7.551312e-05 -4.532951e-03 3.105630e-04)) ((-3.774188e-04 -1.889028e-01 -7.438837e-03) (1.239608e-06 -3.973352e-03 3.931598e-06))
0.000583542   	((-7.771553e-03 9.372983e+00 -2.351774e-02) (-7.388501e-05 -4.508739e-03 2.678172e-04)) ((-3.655458e-04 -1.879352e-01 -9.008428e-03) (1.341916e-06 -3.957037e-03 1.095812e-05))
0.000590212   	((3.821959e-05 9.328530e+00 -1.075713e-03) (-7.389493e-05 -4.409235e-03 2.021755e-04)) ((-6.165069e-05 -1.868336e-01 9.302821e-04) (1.225733e-06 -3.946801e-03 1.078367e-05))
0.000596842   	((2.795312e-03 9.333017e+00 1.720631e-02) (-7.968625e-05 -4.291491e-03 2.215047e-04)) ((-5.456778e-05 -1.863979e-01 5.501344e-03) (1.215065e-06 -3.934023e-03 9.098497e-06))
0.000603501   	((3.325663e-04 9.302534e+00 6.208349e-03) (-7.982107e-05 -4.187136e-03 2.327900e-04)) ((-2.301862e-04 -1.855668e-01 2.016855e-03) (1.140296e-06 -3.916514e-03 7.973263e-06))
0.000610154   	((-1.588026e-03 9.321967e+00 -7.539550e-03) (-8.280895e-05 -4.103631e-03 2.297174e-04)) ((-2.867769e-04 -1.856701e-01 -1.203598e-03) (1.033589e-06 -3.900909e-03 5.645121e-06))
0.0006168     	((-1.328446e-03 9.344377e+00 -2.987487e-03) (-8.584533e-05 -4.017455e-03 2.261227e-04)) ((-3.157419e-04 -1.857365e-01 -9.827252e-04) (9.350281e-07 -3.881348e-03 4.843042e-06))
0.000623441   	((-1.566800e-03 9.362115e+00 -2.083909e-03) (-8.922995e-05 -3.944069e-03 2.255262e-04)) ((-2.858805e-04 -1.863667e-01 -8.497897e-04) (7.927827e-07 -3.861916e-03 3.316491e-06))
0.000630069   	((1.795291e-03 9.375685e+00 1.288882e-02) (-9.275149e-05 -3.869258e-03 2.246128e-04)) ((-1.167977e-04 -1.867784e-01 3.109192e-03) (8.028774e-07 -3.841981e-03 4.017906e-06))
0.000636687   	((-1.668411e-03 9.378492e+00 6.923786e-03) (-9.762130e-05 -3.794527e-03 1.902126e-04)) ((-2.087592e-04 -1.870091e-01 -1.419732e-03) (7.521948e-07 -3.825525e-03 4.321650e-06))
0.000643302   	((-1.766175e-03 9.382551e+00 3.324375e-04) (-9.327265e-05 -3.737392e-03 1.406836e-04)) ((-2.076799e-04 -1.875231e-01 -2.501084e-03) (7.431036e-07 -3.810123e-03 5.268152e-06))
0.000649918   	((-9.303747e-04 9.382933e+00 5.257089e-04) (-8.730129e-05 -3.678732e-03 1.152399e-04)) ((-1.721720e-04 -1.880568e-01 -1.763725e-03) (6.484166e-07 -3.797610e-03 4.750606e-06))
0.000656528   	((3.062623e-03 9.416412e+00 1.412708e-02) (-8.779912e-05 -3.625861e-03 1.119498e-04)) ((-5.129274e-05 -1.898620e-01 2.783550e-03) (6.255368e-07 -3.782504e-03 5.380681e-06))
0.000663131   	((6.971570e-03 9.493436e+00 3.874243e-02) (-8.486187e-05 -3.560202e-03 1.333298e-04)) ((1.722888e-04 -1.923321e-01 8.623408e-03) (7.197883e-07 -3.773781e-03 5.847297e-06))
0.000669726   	((-1.928636e-03 9.417821e+00 6.695918e-03) (-9.061334e-05 -3.491166e-03 1.140160e-04)) ((-1.906632e-04 -1.908559e-01 -2.838267e-03) (5.554487e-07 -3.768568e-03 2.944964e-06))
0.00067631    	((1.669442e-03 9.453811e+00 8.133171e-03) (-9.367846e-05 -3.431211e-03 1.303455e-04)) ((-7.314375e-05 -1.929902e-01 9.531415e-04) (8.056199e-07 -3.761615e-03 6.494500e-06))
0.000682886   	((6.182930e-03 9.407973e+00 1.496568e-02) (-1.090972e-04 -3.390816e-03 1.404411e-04)) ((-1.506789e-04 -1.918545e-01 4.147450e-03) (7.750857e-07 -3.756115e-03 6.335426e-06))
0.000689455   	((-4.945291e-03 9.444653e+00 -2.085236e-02) (-9.785625e-05 -3.328605e-03 3.297978e-05)) ((-3.491065e-04 -1.934157e-01 -7.498970e-03) (6.294007e-07 -3.753832e-03 5.704993e-06))
0.000696016   	((-3.209527e-03 9.652092e+00 -1.358708e-02) (-1.178340e-04 -3.222864e-03 -3.099216e-05)) ((-7.754462e-05 -1.951042e-01 -7.344356e-03) (4.225151e-07 -3.749708e-03 3.742035e-06))
0.000702569   	((-4.836928e-03 9.524491e+00 -2.759189e-02) (-1.150269e-04 -3.248096e-03 -1.258186e-04)) ((-1.935685e-04 -1.975106e-01 -8.204046e-03) (5.603956e-07 -3.750050e-03 7.335268e-06))
0.000709113   	((2.021954e-03 9.248678e+00 4.723948e-03) (-9.100838e-05 -3.238905e-03 -8.720130e-05)) ((-1.997574e-05 -1.908789e-01 4.955665e-03) (6.671334e-07 -3.745877e-03 1.114868e-05))
0.000715652   	((2.396849e-03 9.130570e+00 1.735022e-02) (-8.253936e-05 -3.178083e-03 -9.021388e-05)) ((-1.084994e-04 -1.879165e-01 6.228215e-03) (6.702977e-07 -3.739127e-03 1.141100e-05))
0.000722187   	((4.109677e-04 9.157011e+00 1.831951e-02) (-7.168229e-05 -3.128146e-03 -9.558721e-05)) ((-4.921096e-05 -1.881640e-01 3.702876e-03) (6.096965e-07 -3.733343e-03 8.126164e-06))
0.000728718   	((1.157846e-03 9.165812e+00 3.359184e-02) (-7.215808e-05 -3.157874e-03 -2.878413e-05)) ((-3.941853e-05 -1.892067e-01 4.071757e-03) (3.563014e-07 -3.727939e-03 1.541226e-06))
0.000735243   	((-3.980273e-03 9.127519e+00 2.143162e-03) (-6.932896e-05 -3.100578e-03 -4.259753e-05)) ((-3.147096e-04 -1.879606e-01 -3.795375e-03) (6.599289e-07 -3.713037e-03 8.135179e-06))
0.000741763   	((5.602675e-04 9.161703e+00 1.998644e-02) (-6.464037e-05 -3.012136e-03 1.886596e-05)) ((-3.875769e-05 -1.886865e-01 2.150229e-03) (8.210033e-07 -3.708174e-03 9.881451e-06))
0.000748278   	((-2.161106e-04 9.153056e+00 1.275670e-02) (-6.530780e-05 -2.962473e-03 -1.348845e-06)) ((-1.415850e-04 -1.879691e-01 -1.411757e-04) (8.511865e-07 -3.696617e-03 9.456419e-06))
0.000754787   	((1.840749e-03 9.139144e+00 1.293193e-02) (-5.295048e-05 -2.904986e-03 -1.741503e-05)) ((-1.001146e-04 -1.876627e-01 2.344390e-03) (8.164948e-07 -3.685727e-03 9.099193e-06))
0.000761291   	((3.212019e-03 9.186399e+00 2.270089e-02) (-3.923382e-05 -2.855656e-03 6.969324e-06)) ((-3.383334e-05 -1.886778e-01 3.428057e-03) (9.235162e-07 -3.673774e-03 1.023211e-05))
0.000767791   	((4.063904e-03 9.184620e+00 3.026800e-02) (-3.094245e-05 -2.813420e-03 3.258577e-05)) ((5.597254e-05 -1.890652e-01 2.835226e-03) (9.134019e-07 -3.660406e-03 9.070424e-06))
0.000774285   	((2.965972e-03 9.184343e+00 2.899744e-02) (-3.055094e-05 -2.771354e-03 6.820812e-05)) ((3.164673e-05 -1.892626e-01 3.610140e-03) (9.330355e-07 -3.649068e-03 8.582820e-06))
0.000780773   	((1.044618e-03 9.185004e+00 2.253872e-02) (-2.115626e-05 -2.721742e-03 1.039697e-04)) ((-2.302297e-05 -1.898076e-01 1.825358e-03) (1.049200e-06 -3.636627e-03 9.110516e-06))
0.000787253   	((1.558322e-03 9.157991e+00 1.933938e-02) (-1.525164e-05 -2.697249e-03 1.340794e-04)) ((-3.855428e-05 -1.890757e-01 5.228976e-04) (1.001966e-06 -3.624379e-03 7.565262e-06))
0.000793726   	((-1.174504e-03 9.163218e+00 9.049725e-03) (-1.496829e-05 -2.659391e-03 1.546189e-04)) ((-2.039564e-04 -1.895100e-01 -1.867149e-03) (1.066401e-06 -3.615555e-03 6.997052e-06))
0.00080019    	((-1.718406e-03 9.185066e+00 2.075621e-02) (-2.600790e-05 -2.659934e-03 2.429658e-04)) ((-2.894915e-04 -1.925213e-01 -1.917736e-03) (1.027713e-06 -3.614274e-03 1.128891e-06))
0.000806645   	((-9.551319e-04 9.159894e+00 1.039962e-02) (-3.092790e-05 -2.717726e-03 3.041006e-04)) ((-2.921139e-04 -1.956009e-01 -4.230450e-03) (4.781297e-07 -3.624717e-03 -2.480142e-06))
0.000813088   	((-4.427699e-03 9.132807e+00 -1.811257e-02) (-2.527881e-05 -2.617640e-03 2.230107e-04)) ((-3.061133e-04 -1.917047e-01 -6.377268e-03) (5.328488e-07 -3.619210e-03 -7.422785e-07))
0.00081952    	((-7.556485e-04 9.065769e+00 -8.097032e-03) (-1.551696e-05 -2.635982e-03 8.798970e-05)) ((-1.421133e-04 -1.903626e-01 -2.057189e-03) (7.968269e-07 -3.621683e-03 9.233368e-06))
0.000825942   	((-8.166182e-03 9.091261e+00 -3.783495e-02) (-1.628607e-05 -2.518657e-03 2.383914e-05)) ((-4.148197e-04 -1.908562e-01 -1.016553e-02) (3.605701e-07 -3.616084e-03 3.259545e-06))
0.00083235    	((-6.062843e-03 9.116758e+00 -3.538680e-02) (-1.325001e-05 -2.481744e-03 -6.283517e-05)) ((-4.932733e-04 -1.912471e-01 -9.548956e-03) (4.324211e-07 -3.612802e-03 6.436575e-06))
0.000838745   	((1.397672e-03 9.076206e+00 -2.174770e-02) (-4.525190e-06 -2.413270e-03 -1.177624e-04)) ((-1.062837e-04 -1.915408e-01 -8.090330e-04) (1.813708e-07 -3.607306e-03 4.752170e-06))
0.000845127   	((2.881967e-03 8.998673e+00 -8.411037e-04) (1.632443e-06 -2.380375e-03 -1.258712e-04)) ((-6.142761e-05 -1.891581e-01 2.951938e-03) (1.943581e-07 -3.597330e-03 3.781248e-06))
0.0008515     	((3.071749e-03 9.048022e+00 -1.309781e-02) (-4.315940e-06 -2.355796e-03 -1.518918e-04)) ((-5.019621e-05 -1.908444e-01 -1.552451e-04) (-1.173855e-07 -3.592415e-03 -2.215919e-07))
0.000857862   	((7.966115e-03 9.045177e+00 2.074256e-02) (-1.246206e-05 -2.328824e-03 -1.632636e-04)) ((1.737931e-04 -1.911608e-01 8.019556e-03) (-4.341011e-07 -3.594090e-03 -2.167405e-06))
0.000864212   	((2.997262e-03 9.004064e+00 2.273296e-02) (-1.312589e-05 -2.308546e-03 -5.035250e-06)) ((-6.763304e-06 -1.904271e-01 5.014099e-03) (-3.590322e-07 -3.603461e-03 -2.191801e-06))
0.000870551   	((3.004116e-03 8.974777e+00 1.557768e-02) (-1.649683e-05 -2.326605e-03 -6.784632e-05)) ((2.839782e-05 -1.904404e-01 3.253271e-03) (-9.003871e-07 -3.598580e-03 -8.997566e-06))
0.000876877   	((1.162739e-02 9.075828e+00 3.513269e-02) (-1.947194e-05 -2.309321e-03 -3.537644e-05)) ((5.734787e-05 -1.941099e-01 9.600703e-03) (-1.154902e-06 -3.596167e-03 -1.142518e-05))
0.000883191   	((7.261789e-03 8.992566e+00 2.998036e-02) (-2.666518e-05 -2.278212e-03 -6.089448e-05)) ((5.892480e-05 -1.917274e-01 4.087083e-03) (-1.220197e-06 -3.585732e-03 -8.464158e-06))
0.00088949    	((7.086943e-03 9.048995e+00 3.497225e-02) (-1.156139e-05 -2.286248e-03 2.203697e-05)) ((1.285452e-04 -1.933303e-01 6.018903e-03) (-1.016364e-06 -3.590769e-03 -7.156396e-06))
0.000895772   	((1.272989e-03 8.978567e+00 6.727512e-03) (-2.594250e-05 -2.247055e-03 -5.045242e-06)) ((-4.814894e-05 -1.911186e-01 -9.018490e-04) (-9.490007e-07 -3.580633e-03 -7.315961e-06))
0.000902037   	((-9.784924e-04 8.973479e+00 2.467511e-02) (-4.117723e-05 -2.247993e-03 2.549860e-05)) ((-8.609994e-05 -1.903875e-01 6.226073e-04) (-1.112674e-06 -3.578819e-03 -1.126672e-05))
0.000908283   	((1.636851e-03 8.981896e+00 1.986127e-02) (-4.273462e-05 -2.262959e-03 6.729180e-05)) ((8.675527e-05 -1.916265e-01 3.748124e-04) (-1.005367e-06 -3.579583e-03 -9.189673e-06))
0.000914508   	((-5.626618e-03 8.949167e+00 8.815560e-03) (-3.418512e-05 -2.249859e-03 8.386273e-05)) ((3.135933e-05 -1.908451e-01 -4.663005e-03) (-8.078399e-07 -3.574214e-03 -6.429787e-06))
0.00092071    	((-9.631313e-03 8.926245e+00 -1.150142e-03) (-1.105574e-05 -2.181965e-03 2.797889e-05)) ((-8.084413e-05 -1.904757e-01 -9.549716e-03) (-6.615055e-07 -3.572470e-03 -6.247666e-06))
0.00092689    	((-3.783313e-03 8.892614e+00 -6.876951e-04) (-9.010128e-06 -2.135714e-03 5.834189e-05)) ((1.615280e-06 -1.893538e-01 -3.816678e-03) (-5.099990e-07 -3.564556e-03 -5.690083e-06))
0.000933046   	((-2.978111e-03 8.957129e+00 2.819330e-02) (2.174851e-07 -2.111079e-03 1.134661e-04)) ((5.899199e-05 -1.926978e-01 -1.467710e-03) (-2.347208e-07 -3.569110e-03 -4.636541e-06))
0.000939179   	((-3.880894e-03 8.851401e+00 -8.537271e-03) (1.441970e-05 -2.069632e-03 7.457944e-05)) ((-1.019944e-04 -1.895902e-01 -6.204438e-03) (-1.227813e-07 -3.565654e-03 -2.634014e-06))
0.000945286   	((-9.245855e-03 9.002171e+00 -1.554775e-02) (3.617172e-05 -2.042515e-03 7.882624e-05)) ((-4.110471e-04 -1.916654e-01 -1.033322e-02) (2.778340e-08 -3.559987e-03 -8.190560e-07))
0.000951368   	((-8.015078e-05 8.909724e+00 -9.869567e-03) (4.338418e-05 -2.022697e-03 8.475642e-05)) ((-6.275205e-05 -1.911670e-01 -1.269025e-03) (3.850487e-08 -3.554016e-03 1.091140e-06))
0.000957426   	((2.489780e-03 8.797034e+00 -3.056064e-03) (4.160686e-05 -2.005510e-03 7.521090e-05)) ((-3.230201e-06 -1.885715e-01 1.089849e-03) (-6.482129e-08 -3.547139e-03 7.983016e-08))