# y+ ()       
# Time        	patch         	min           	max           	average       
0             	innerCylinder	0.000000e+00	0.000000e+00	0.000000e+00
0             	innerCylinder_slave	0.000000e+00	0.000000e+00	0.000000e+00
0             	propellerTip	0.000000e+00	0.000000e+00	0.000000e+00
5.01485e-05   	innerCylinder	1.325494e-01	1.573520e+01	3.791106e+00
5.01485e-05   	innerCylinder_slave	7.594515e-02	1.386133e+01	3.650313e+00
5.01485e-05   	propellerTip	2.533772e+00	3.278802e+02	4.516223e+01
9.88364e-05   	innerCylinder	1.445017e-01	1.781420e+01	4.198796e+00
9.88364e-05   	innerCylinder_slave	8.171495e-02	1.558978e+01	4.045957e+00
9.88364e-05   	propellerTip	2.599573e+00	3.239046e+02	4.227061e+01
0.000153494   	innerCylinder	1.577385e-01	2.023839e+01	4.636941e+00
0.000153494   	innerCylinder_slave	8.735544e-02	1.773023e+01	4.469745e+00
0.000153494   	propellerTip	2.418657e+00	3.228402e+02	4.000328e+01
0.000211504   	innerCylinder	1.733665e-01	2.277276e+01	5.081471e+00
0.000211504   	innerCylinder_slave	9.282571e-02	2.002293e+01	4.898788e+00
0.000211504   	propellerTip	2.909959e+00	3.221257e+02	3.803672e+01
0.000271042   	innerCylinder	1.850899e-01	2.522170e+01	5.518918e+00
0.000271042   	innerCylinder_slave	9.846353e-02	2.235320e+01	5.320650e+00
0.000271042   	propellerTip	2.512382e+00	3.217622e+02	3.639003e+01
0.000332766   	innerCylinder	1.912114e-01	2.755773e+01	5.950663e+00
0.000332766   	innerCylinder_slave	1.043441e-01	2.471554e+01	5.736786e+00
0.000332766   	propellerTip	1.736807e+00	3.215161e+02	3.502689e+01
0.000397369   	innerCylinder	1.977148e-01	2.977074e+01	6.381567e+00
0.000397369   	innerCylinder_slave	1.104466e-01	2.704015e+01	6.152211e+00
0.000397369   	propellerTip	1.547571e+00	3.224958e+02	3.406568e+01
0.000463068   	innerCylinder	2.043782e-01	3.207408e+01	6.798934e+00
0.000463068   	innerCylinder_slave	1.163059e-01	2.919123e+01	6.554669e+00
0.000463068   	propellerTip	1.090395e+00	3.215896e+02	3.346782e+01
0.000529999   	innerCylinder	2.111981e-01	3.433969e+01	7.208590e+00
0.000529999   	innerCylinder_slave	1.219532e-01	3.112398e+01	6.948731e+00
0.000529999   	propellerTip	1.783099e+00	3.144522e+02	3.323350e+01
0.000596842   	innerCylinder	2.179306e-01	3.629720e+01	7.598062e+00
0.000596842   	innerCylinder_slave	1.272279e-01	3.276779e+01	7.321955e+00
0.000596842   	propellerTip	2.288048e+00	3.206158e+02	3.321526e+01
0.000663131   	innerCylinder	2.245676e-01	3.805995e+01	7.970458e+00
0.000663131   	innerCylinder_slave	1.321970e-01	3.423889e+01	7.677763e+00
0.000663131   	propellerTip	2.085273e+00	3.209376e+02	3.320534e+01
0.000728718   	innerCylinder	2.311468e-01	3.971545e+01	8.329664e+00
0.000728718   	innerCylinder_slave	1.368515e-01	3.558152e+01	8.018254e+00
0.000728718   	propellerTip	2.001656e+00	3.247015e+02	3.352711e+01
0.000793726   	innerCylinder	2.376454e-01	4.119307e+01	8.671021e+00
0.000793726   	innerCylinder_slave	1.412070e-01	3.681594e+01	8.340002e+00
0.000793726   	propellerTip	1.714160e+00	3.225397e+02	3.380527e+01
0.000857862   	innerCylinder	2.440571e-01	4.249137e+01	8.998818e+00
0.000857862   	innerCylinder_slave	1.452640e-01	3.795096e+01	8.646300e+00
0.000857862   	propellerTip	1.981383e+00	3.222052e+02	3.422038e+01
0.00092071    	innerCylinder	2.503302e-01	4.366153e+01	9.310741e+00
0.00092071    	innerCylinder_slave	1.490333e-01	3.894928e+01	8.934873e+00
0.00092071    	propellerTip	2.044702e+00	3.135641e+02	3.462988e+01
0.000981436   	innerCylinder	2.563799e-01	4.464331e+01	9.602964e+00
0.000981436   	innerCylinder_slave	1.525027e-01	3.988498e+01	9.202993e+00
0.000981436   	propellerTip	2.083034e+00	3.197432e+02	3.497510e+01
0.0010404     	innerCylinder	2.623276e-01	4.552786e+01	9.881432e+00
0.0010404     	innerCylinder_slave	1.557215e-01	4.070744e+01	9.455403e+00
0.0010404     	propellerTip	1.784899e+00	3.194538e+02	3.533926e+01
0.00109904    	innerCylinder	2.683214e-01	4.633733e+01	1.014971e+01
0.00109904    	innerCylinder_slave	1.587637e-01	4.144740e+01	9.696336e+00
0.00109904    	propellerTip	1.421291e+00	3.207572e+02	3.554664e+01
0.00115762    	innerCylinder	2.744672e-01	4.716083e+01	1.041374e+01
0.00115762    	innerCylinder_slave	1.616910e-01	4.209062e+01	9.931024e+00
0.00115762    	propellerTip	1.728794e+00	3.114576e+02	3.573079e+01
0.00121639    	innerCylinder	2.808204e-01	4.809353e+01	1.067483e+01
0.00121639    	innerCylinder_slave	1.645136e-01	4.265609e+01	1.016065e+01
0.00121639    	propellerTip	2.093126e+00	3.187896e+02	3.597386e+01
0.00127541    	innerCylinder	2.873596e-01	4.891205e+01	1.093163e+01
0.00127541    	innerCylinder_slave	1.672172e-01	4.315639e+01	1.038430e+01
0.00127541    	propellerTip	1.914376e+00	3.174665e+02	3.627409e+01
0.00133473    	innerCylinder	2.941180e-01	4.956260e+01	1.118439e+01
0.00133473    	innerCylinder_slave	1.698113e-01	4.377022e+01	1.060295e+01
0.00133473    	propellerTip	1.860505e+00	3.184535e+02	3.660476e+01
0.00139471    	innerCylinder	3.011466e-01	5.009265e+01	1.143527e+01
0.00139471    	innerCylinder_slave	1.723121e-01	4.431149e+01	1.081860e+01
0.00139471    	propellerTip	1.923564e+00	3.197634e+02	3.687699e+01
0.00145547    	innerCylinder	3.086031e-01	5.066611e+01	1.168559e+01
0.00145547    	innerCylinder_slave	1.747271e-01	4.478853e+01	1.103257e+01
0.00145547    	propellerTip	1.984537e+00	3.180277e+02	3.716967e+01
0.00151651    	innerCylinder	3.152451e-01	5.112670e+01	1.193387e+01
0.00151651    	innerCylinder_slave	1.770207e-01	4.519248e+01	1.124346e+01
0.00151651    	propellerTip	1.822936e+00	3.206570e+02	3.743745e+01
0.00157765    	innerCylinder	3.209161e-01	5.146964e+01	1.217906e+01
0.00157765    	innerCylinder_slave	1.791714e-01	4.552047e+01	1.145007e+01
0.00157765    	propellerTip	1.789478e+00	3.226777e+02	3.768024e+01
0.00163889    	innerCylinder	3.271395e-01	5.174990e+01	1.242261e+01
0.00163889    	innerCylinder_slave	1.812003e-01	4.578004e+01	1.165403e+01
0.00163889    	propellerTip	1.904024e+00	3.206604e+02	3.788864e+01
0.00170035    	innerCylinder	3.340218e-01	5.206956e+01	1.266648e+01
0.00170035    	innerCylinder_slave	1.831082e-01	4.598540e+01	1.185635e+01
0.00170035    	propellerTip	2.104025e+00	3.143772e+02	3.812515e+01
0.00176225    	innerCylinder	3.415052e-01	5.229384e+01	1.291056e+01
0.00176225    	innerCylinder_slave	1.848774e-01	4.614320e+01	1.205678e+01
0.00176225    	propellerTip	2.334540e+00	3.178857e+02	3.831217e+01
0.00182476    	innerCylinder	3.491704e-01	5.242875e+01	1.315582e+01
0.00182476    	innerCylinder_slave	1.864887e-01	4.625093e+01	1.225728e+01
0.00182476    	propellerTip	2.467175e+00	3.106019e+02	3.849064e+01
0.00188788    	innerCylinder	3.560285e-01	5.258679e+01	1.340206e+01
0.00188788    	innerCylinder_slave	1.878911e-01	4.634631e+01	1.245781e+01
0.00188788    	propellerTip	2.355193e+00	3.119101e+02	3.866631e+01
0.00195155    	innerCylinder	3.610114e-01	5.274656e+01	1.365019e+01
0.00195155    	innerCylinder_slave	1.890871e-01	4.657404e+01	1.265891e+01
0.00195155    	propellerTip	2.130717e+00	3.145166e+02	3.882832e+01
0.00201569    	innerCylinder	3.636542e-01	5.284030e+01	1.389871e+01
0.00201569    	innerCylinder_slave	1.900442e-01	4.676361e+01	1.285944e+01
0.00201569    	propellerTip	1.924137e+00	3.149638e+02	3.906447e+01
0.0020802     	innerCylinder	3.658732e-01	5.288764e+01	1.414715e+01
0.0020802     	innerCylinder_slave	1.907372e-01	4.691489e+01	1.305762e+01
0.0020802     	propellerTip	1.774625e+00	3.168613e+02	3.925670e+01
0.00214501    	innerCylinder	3.732070e-01	5.290316e+01	1.439640e+01
0.00214501    	innerCylinder_slave	1.913762e-01	4.703205e+01	1.325559e+01
0.00214501    	propellerTip	1.714340e+00	3.166568e+02	3.940199e+01
0.00220997    	innerCylinder	3.923460e-01	5.289749e+01	1.464445e+01
0.00220997    	innerCylinder_slave	1.920450e-01	4.712302e+01	1.345195e+01
0.00220997    	propellerTip	1.771641e+00	3.167675e+02	3.953423e+01
0.00227509    	innerCylinder	4.248002e-01	5.287826e+01	1.489114e+01
0.00227509    	innerCylinder_slave	1.930452e-01	4.719570e+01	1.364856e+01
0.00227509    	propellerTip	1.889775e+00	3.154518e+02	3.970908e+01
0.00234044    	innerCylinder	4.259863e-01	5.285387e+01	1.513521e+01
0.00234044    	innerCylinder_slave	1.945627e-01	4.725928e+01	1.384537e+01
0.00234044    	propellerTip	1.883462e+00	3.147443e+02	3.989142e+01
0.00240613    	innerCylinder	4.269582e-01	5.283020e+01	1.537953e+01
0.00240613    	innerCylinder_slave	1.969343e-01	4.731972e+01	1.404395e+01
0.00240613    	propellerTip	2.213268e+00	3.133304e+02	4.006102e+01
0.002472      	innerCylinder	4.284679e-01	5.281379e+01	1.562373e+01
0.002472      	innerCylinder_slave	2.003263e-01	4.738320e+01	1.424479e+01
0.002472      	propellerTip	2.122830e+00	3.131743e+02	4.016181e+01
0.00253777    	innerCylinder	4.301424e-01	5.281174e+01	1.586614e+01
0.00253777    	innerCylinder_slave	2.049549e-01	4.745295e+01	1.444586e+01
0.00253777    	propellerTip	1.840448e+00	3.183246e+02	4.026143e+01
0.00260334    	innerCylinder	4.321954e-01	5.282942e+01	1.610697e+01
0.00260334    	innerCylinder_slave	2.109219e-01	4.753280e+01	1.464824e+01
0.00260334    	propellerTip	1.554673e+00	3.151456e+02	4.036448e+01
0.0026687     	innerCylinder	4.343974e-01	5.287126e+01	1.634463e+01
0.0026687     	innerCylinder_slave	2.180926e-01	4.762847e+01	1.485057e+01
0.0026687     	propellerTip	1.391418e+00	3.140085e+02	4.048285e+01
0.00273381    	innerCylinder	4.219143e-01	5.293675e+01	1.657691e+01
0.00273381    	innerCylinder_slave	2.264344e-01	4.799769e+01	1.505146e+01
0.00273381    	propellerTip	1.508543e+00	3.167854e+02	4.049087e+01
0.00279846    	innerCylinder	3.929981e-01	5.302599e+01	1.680651e+01
0.00279846    	innerCylinder_slave	2.359163e-01	4.896411e+01	1.525271e+01
0.00279846    	propellerTip	1.081262e+00	3.134980e+02	4.052382e+01
0.00286252    	innerCylinder	3.644587e-01	5.443386e+01	1.702981e+01
0.00286252    	innerCylinder_slave	2.463119e-01	5.071962e+01	1.545107e+01
0.00286252    	propellerTip	1.341187e+00	3.146784e+02	4.057992e+01
0.0029261     	innerCylinder	3.426174e-01	5.598187e+01	1.724856e+01
0.0029261     	innerCylinder_slave	2.574903e-01	5.246087e+01	1.564676e+01
0.0029261     	propellerTip	1.324475e+00	3.116257e+02	4.067474e+01
0.00298957    	innerCylinder	3.272137e-01	5.728734e+01	1.746345e+01
0.00298957    	innerCylinder_slave	2.694479e-01	5.409139e+01	1.583864e+01
0.00298957    	propellerTip	1.535960e+00	3.128700e+02	4.077175e+01
0.00305332    	innerCylinder	3.179301e-01	5.853788e+01	1.767382e+01
0.00305332    	innerCylinder_slave	2.822599e-01	5.552226e+01	1.602975e+01
0.00305332    	propellerTip	1.652507e+00	3.175425e+02	4.078577e+01
0.00311751    	innerCylinder	3.147187e-01	5.967975e+01	1.788255e+01
0.00311751    	innerCylinder_slave	2.962699e-01	5.703904e+01	1.622338e+01
0.00311751    	propellerTip	1.951264e+00	3.137715e+02	4.091264e+01
0.00318189    	innerCylinder	3.180017e-01	6.043959e+01	1.808525e+01
0.00318189    	innerCylinder_slave	3.110597e-01	5.832311e+01	1.641355e+01
0.00318189    	propellerTip	2.067409e+00	3.146824e+02	4.105274e+01
0.00324617    	innerCylinder	3.246907e-01	6.091020e+01	1.828324e+01
0.00324617    	innerCylinder_slave	3.267404e-01	5.924040e+01	1.660311e+01
0.00324617    	propellerTip	1.966955e+00	3.154386e+02	4.124426e+01
0.00331011    	innerCylinder	3.317763e-01	6.121020e+01	1.847282e+01
0.00331011    	innerCylinder_slave	3.430579e-01	5.976160e+01	1.678916e+01
0.00331011    	propellerTip	1.969618e+00	3.183518e+02	4.140798e+01
0.00337338    	innerCylinder	3.376522e-01	6.112622e+01	1.865508e+01
0.00337338    	innerCylinder_slave	3.601574e-01	6.010932e+01	1.697089e+01
0.00337338    	propellerTip	2.044713e+00	3.167396e+02	4.158339e+01
0.00343539    	innerCylinder	3.494502e-01	6.124258e+01	1.882952e+01
0.00343539    	innerCylinder_slave	3.775495e-01	6.043918e+01	1.714736e+01
0.00343539    	propellerTip	2.071027e+00	3.158226e+02	4.175901e+01
0.00349601    	innerCylinder	3.756812e-01	6.105184e+01	1.899478e+01
0.00349601    	innerCylinder_slave	3.948156e-01	6.055176e+01	1.731682e+01
0.00349601    	propellerTip	2.019380e+00	3.166723e+02	4.194632e+01
0.00355595    	innerCylinder	4.138359e-01	6.057159e+01	1.915324e+01
0.00355595    	innerCylinder_slave	4.117306e-01	6.038507e+01	1.748168e+01
0.00355595    	propellerTip	1.985967e+00	3.170882e+02	4.203114e+01
0.0036154     	innerCylinder	4.555606e-01	5.983617e+01	1.930678e+01
0.0036154     	innerCylinder_slave	4.283724e-01	6.000042e+01	1.764362e+01
0.0036154     	propellerTip	1.978625e+00	3.172834e+02	4.213946e+01
0.00367442    	innerCylinder	4.798714e-01	5.935761e+01	1.945203e+01
0.00367442    	innerCylinder_slave	4.363186e-01	5.927021e+01	1.779902e+01
0.00367442    	propellerTip	2.006737e+00	3.194760e+02	4.216160e+01
0.00373323    	innerCylinder	4.847461e-01	5.900999e+01	1.959052e+01
0.00373323    	innerCylinder_slave	4.346822e-01	5.853630e+01	1.794711e+01
0.00373323    	propellerTip	2.071345e+00	3.187509e+02	4.211612e+01
0.00379208    	innerCylinder	4.902453e-01	5.851069e+01	1.972285e+01
0.00379208    	innerCylinder_slave	4.332496e-01	5.822427e+01	1.808745e+01
0.00379208    	propellerTip	2.166886e+00	3.187679e+02	4.200516e+01
0.00385142    	innerCylinder	4.963593e-01	5.787861e+01	1.985148e+01
0.00385142    	innerCylinder_slave	4.321010e-01	5.767072e+01	1.822082e+01
0.00385142    	propellerTip	2.016943e+00	3.192375e+02	4.184656e+01
0.00391156    	innerCylinder	5.016713e-01	5.738697e+01	1.997783e+01
0.00391156    	innerCylinder_slave	4.311821e-01	5.703565e+01	1.834685e+01
0.00391156    	propellerTip	1.999142e+00	3.195391e+02	4.167620e+01
0.00397242    	innerCylinder	4.931952e-01	5.766417e+01	2.010161e+01
0.00397242    	innerCylinder_slave	4.303415e-01	5.630735e+01	1.846284e+01
0.00397242    	propellerTip	1.906250e+00	3.165585e+02	4.145075e+01
0.00403432    	innerCylinder	4.868826e-01	5.793174e+01	2.022593e+01
0.00403432    	innerCylinder_slave	4.293907e-01	5.567503e+01	1.857128e+01
0.00403432    	propellerTip	1.858562e+00	3.094560e+02	4.129554e+01
0.00409748    	innerCylinder	4.844494e-01	5.816534e+01	2.035095e+01
0.00409748    	innerCylinder_slave	4.283051e-01	5.530466e+01	1.867351e+01
0.00409748    	propellerTip	1.867949e+00	3.146021e+02	4.120130e+01
0.00416201    	innerCylinder	4.882535e-01	5.826072e+01	2.047838e+01
0.00416201    	innerCylinder_slave	4.271410e-01	5.486578e+01	1.877272e+01
0.00416201    	propellerTip	1.865329e+00	3.119452e+02	4.112155e+01
0.00422792    	innerCylinder	5.003843e-01	5.818095e+01	2.060926e+01
0.00422792    	innerCylinder_slave	4.260176e-01	5.438586e+01	1.887319e+01
0.00422792    	propellerTip	1.015862e+00	3.104471e+02	4.106447e+01
0.00429516    	innerCylinder	5.030089e-01	5.799848e+01	2.074379e+01
0.00429516    	innerCylinder_slave	4.250302e-01	5.390121e+01	1.897919e+01
0.00429516    	propellerTip	2.110514e+00	3.117337e+02	4.101307e+01
0.00436387    	innerCylinder	4.995075e-01	5.811028e+01	2.088161e+01
0.00436387    	innerCylinder_slave	4.240894e-01	5.345255e+01	1.909537e+01
0.00436387    	propellerTip	2.204592e+00	3.089703e+02	4.097273e+01
0.00443393    	innerCylinder	4.916778e-01	5.800687e+01	2.102055e+01
0.00443393    	innerCylinder_slave	4.233680e-01	5.307676e+01	1.922099e+01
0.00443393    	propellerTip	2.293652e+00	3.042202e+02	4.094864e+01
0.00450506    	innerCylinder	4.837598e-01	5.769949e+01	2.115866e+01
0.00450506    	innerCylinder_slave	4.230061e-01	5.281030e+01	1.935592e+01
0.00450506    	propellerTip	1.974658e+00	3.135768e+02	4.087837e+01
0.00457681    	innerCylinder	4.776597e-01	5.720582e+01	2.129263e+01
0.00457681    	innerCylinder_slave	4.230231e-01	5.266642e+01	1.949516e+01
0.00457681    	propellerTip	1.857862e+00	3.149685e+02	4.086910e+01
0.00464908    	innerCylinder	4.733077e-01	5.711517e+01	2.142069e+01
0.00464908    	innerCylinder_slave	4.227967e-01	5.263655e+01	1.963489e+01
0.00464908    	propellerTip	2.031945e+00	3.101304e+02	4.077106e+01
0.00472133    	innerCylinder	4.703978e-01	5.688091e+01	2.154172e+01
0.00472133    	innerCylinder_slave	4.236908e-01	5.271340e+01	1.977257e+01
0.00472133    	propellerTip	2.254148e+00	3.143973e+02	4.078180e+01
0.00479286    	innerCylinder	4.670100e-01	5.649810e+01	2.165259e+01
0.00479286    	innerCylinder_slave	4.252728e-01	5.286359e+01	1.990338e+01
0.00479286    	propellerTip	2.265747e+00	3.172301e+02	4.078368e+01
0.00486402    	innerCylinder	4.645436e-01	5.601395e+01	2.175536e+01
0.00486402    	innerCylinder_slave	4.273962e-01	5.308366e+01	2.002825e+01
0.00486402    	propellerTip	2.312021e+00	3.160945e+02	4.072833e+01
0.00493552    	innerCylinder	4.632405e-01	5.547514e+01	2.185087e+01
0.00493552    	innerCylinder_slave	4.299970e-01	5.333677e+01	2.014742e+01
0.00493552    	propellerTip	2.370976e+00	3.149678e+02	4.081242e+01
0.00500704    	innerCylinder	4.594931e-01	5.491599e+01	2.193950e+01
0.00500704    	innerCylinder_slave	4.330645e-01	5.353237e+01	2.026064e+01
0.00500704    	propellerTip	2.388492e+00	3.165612e+02	4.080523e+01
0.00507685    	innerCylinder	4.526685e-01	5.501810e+01	2.202342e+01
0.00507685    	innerCylinder_slave	4.372979e-01	5.367212e+01	2.036837e+01
0.00507685    	propellerTip	2.340930e+00	3.148862e+02	4.079592e+01
0.0051469     	innerCylinder	4.427796e-01	5.518550e+01	2.210520e+01
0.0051469     	innerCylinder_slave	4.392019e-01	5.377833e+01	2.047270e+01
0.0051469     	propellerTip	2.294290e+00	3.172190e+02	4.077425e+01
0.00521694    	innerCylinder	4.262088e-01	5.566390e+01	2.218831e+01
0.00521694    	innerCylinder_slave	4.394812e-01	5.388474e+01	2.057599e+01
0.00521694    	propellerTip	1.714465e+00	3.157913e+02	4.079555e+01
0.00528693    	innerCylinder	4.082918e-01	5.635985e+01	2.227078e+01
0.00528693    	innerCylinder_slave	4.384044e-01	5.402807e+01	2.067661e+01
0.00528693    	propellerTip	2.205570e+00	3.173229e+02	4.075772e+01
0.00535657    	innerCylinder	3.936454e-01	5.764721e+01	2.235452e+01
0.00535657    	innerCylinder_slave	4.369513e-01	5.454512e+01	2.077653e+01
0.00535657    	propellerTip	2.094984e+00	3.197160e+02	4.078205e+01
0.00542677    	innerCylinder	3.819664e-01	5.919557e+01	2.243730e+01
0.00542677    	innerCylinder_slave	4.352287e-01	5.581810e+01	2.087403e+01
0.00542677    	propellerTip	1.430311e+00	3.187160e+02	4.071075e+01
0.00549668    	innerCylinder	3.708338e-01	6.150085e+01	2.251990e+01
0.00549668    	innerCylinder_slave	4.323908e-01	5.731438e+01	2.096954e+01
0.00549668    	propellerTip	1.257858e+00	3.155523e+02	4.068559e+01
0.00556566    	innerCylinder	3.602767e-01	6.369707e+01	2.259953e+01
0.00556566    	innerCylinder_slave	4.287180e-01	5.927367e+01	2.106040e+01
0.00556566    	propellerTip	2.063380e+00	3.155041e+02	4.056438e+01
0.00563558    	innerCylinder	3.486063e-01	6.563845e+01	2.267835e+01
0.00563558    	innerCylinder_slave	4.243587e-01	6.160891e+01	2.114955e+01
0.00563558    	propellerTip	2.044479e+00	3.118004e+02	4.042054e+01
0.00570647    	innerCylinder	3.333787e-01	6.719444e+01	2.275704e+01
0.00570647    	innerCylinder_slave	4.200839e-01	6.369992e+01	2.123683e+01
0.00570647    	propellerTip	2.035925e+00	3.127409e+02	4.033469e+01
0.00577621    	innerCylinder	3.162482e-01	6.831822e+01	2.283282e+01
0.00577621    	innerCylinder_slave	4.163696e-01	6.535819e+01	2.131844e+01
0.00577621    	propellerTip	2.039136e+00	3.147027e+02	4.010833e+01
0.00584738    	innerCylinder	3.037420e-01	6.912003e+01	2.290918e+01
0.00584738    	innerCylinder_slave	4.139069e-01	6.657910e+01	2.139788e+01
0.00584738    	propellerTip	2.055224e+00	3.135366e+02	3.991880e+01
0.00591781    	innerCylinder	3.091540e-01	6.971176e+01	2.298321e+01
0.00591781    	innerCylinder_slave	4.119112e-01	6.741807e+01	2.147245e+01
0.00591781    	propellerTip	1.964657e+00	3.140906e+02	3.969679e+01
0.00598841    	innerCylinder	3.365260e-01	7.087388e+01	2.305687e+01
0.00598841    	innerCylinder_slave	4.093465e-01	6.815390e+01	2.154491e+01
0.00598841    	propellerTip	2.123250e+00	3.113523e+02	3.949790e+01
0.0060587     	innerCylinder	3.737475e-01	7.172982e+01	2.312889e+01
0.0060587     	innerCylinder_slave	4.073974e-01	6.931531e+01	2.161368e+01
0.0060587     	propellerTip	2.162188e+00	3.121148e+02	3.942575e+01
0.00612932    	innerCylinder	4.105981e-01	7.233177e+01	2.320047e+01
0.00612932    	innerCylinder_slave	4.061945e-01	7.020610e+01	2.167932e+01
0.00612932    	propellerTip	2.144822e+00	3.073441e+02	3.929297e+01
0.00620015    	innerCylinder	4.431689e-01	7.273165e+01	2.327200e+01
0.00620015    	innerCylinder_slave	4.059652e-01	7.086769e+01	2.174204e+01
0.00620015    	propellerTip	2.144347e+00	3.087504e+02	3.918836e+01
0.00627105    	innerCylinder	4.699862e-01	7.297048e+01	2.334353e+01
0.00627105    	innerCylinder_slave	4.085301e-01	7.130845e+01	2.180227e+01
0.00627105    	propellerTip	2.163481e+00	3.101217e+02	3.909671e+01
0.00634208    	innerCylinder	4.908654e-01	7.310784e+01	2.341464e+01
0.00634208    	innerCylinder_slave	4.117425e-01	7.155407e+01	2.185944e+01
0.00634208    	propellerTip	2.201475e+00	3.080730e+02	3.903113e+01
0.00641281    	innerCylinder	5.068765e-01	7.367095e+01	2.348556e+01
0.00641281    	innerCylinder_slave	4.150300e-01	7.159335e+01	2.191363e+01
0.00641281    	propellerTip	2.252856e+00	3.063069e+02	3.897600e+01
0.00648315    	innerCylinder	5.187985e-01	7.397148e+01	2.355628e+01
0.00648315    	innerCylinder_slave	4.181575e-01	7.210911e+01	2.196561e+01
0.00648315    	propellerTip	2.315059e+00	3.067773e+02	3.901166e+01
0.00655325    	innerCylinder	5.275226e-01	7.396660e+01	2.362534e+01
0.00655325    	innerCylinder_slave	4.209519e-01	7.242866e+01	2.201518e+01
0.00655325    	propellerTip	2.383667e+00	3.061255e+02	3.898055e+01
0.00662342    	innerCylinder	5.336592e-01	7.362236e+01	2.369320e+01
0.00662342    	innerCylinder_slave	4.235376e-01	7.238426e+01	2.206386e+01
0.00662342    	propellerTip	2.455545e+00	3.054068e+02	3.895242e+01
0.00669382    	innerCylinder	5.380893e-01	7.294463e+01	2.375974e+01
0.00669382    	innerCylinder_slave	4.258029e-01	7.202575e+01	2.211179e+01
0.00669382    	propellerTip	2.528674e+00	3.050561e+02	3.892825e+01
0.00676458    	innerCylinder	5.413885e-01	7.199226e+01	2.382547e+01
0.00676458    	innerCylinder_slave	4.277034e-01	7.135516e+01	2.216028e+01
0.00676458    	propellerTip	2.602882e+00	3.046706e+02	3.890829e+01
0.00683583    	innerCylinder	5.442650e-01	7.087197e+01	2.389023e+01
0.00683583    	innerCylinder_slave	4.293907e-01	7.065472e+01	2.220943e+01
0.00683583    	propellerTip	2.678650e+00	3.045848e+02	3.891152e+01
0.00690753    	innerCylinder	5.474489e-01	6.982317e+01	2.395520e+01
0.00690753    	innerCylinder_slave	4.310187e-01	6.970945e+01	2.226070e+01
0.00690753    	propellerTip	2.756121e+00	3.042381e+02	3.894504e+01
0.00697968    	innerCylinder	5.511064e-01	6.885083e+01	2.401954e+01
0.00697968    	innerCylinder_slave	4.325607e-01	6.889309e+01	2.231373e+01
0.00697968    	propellerTip	2.836874e+00	3.041734e+02	3.889230e+01
0.00705205    	innerCylinder	5.557784e-01	6.778560e+01	2.408419e+01
0.00705205    	innerCylinder_slave	4.340492e-01	6.794366e+01	2.236922e+01
0.00705205    	propellerTip	2.920865e+00	3.038874e+02	3.888648e+01
0.00712444    	innerCylinder	5.615231e-01	6.690524e+01	2.414946e+01
0.00712444    	innerCylinder_slave	4.355007e-01	6.690991e+01	2.242656e+01
0.00712444    	propellerTip	2.873598e+00	3.036021e+02	3.886166e+01
0.00719731    	innerCylinder	5.682413e-01	6.657692e+01	2.421586e+01
0.00719731    	innerCylinder_slave	4.370029e-01	6.610214e+01	2.248612e+01
0.00719731    	propellerTip	2.355600e+00	3.032471e+02	3.880019e+01
0.00726974    	innerCylinder	5.759247e-01	6.643720e+01	2.428359e+01
0.00726974    	innerCylinder_slave	4.385740e-01	6.555980e+01	2.254737e+01
0.00726974    	propellerTip	2.460468e+00	3.032393e+02	3.873665e+01
0.00734267    	innerCylinder	5.842526e-01	6.611375e+01	2.435302e+01
0.00734267    	innerCylinder_slave	4.401033e-01	6.539544e+01	2.261053e+01
0.00734267    	propellerTip	3.094055e+00	3.031164e+02	3.869274e+01
0.00741602    	innerCylinder	5.927848e-01	6.584247e+01	2.442510e+01
0.00741602    	innerCylinder_slave	4.412255e-01	6.513580e+01	2.267566e+01
0.00741602    	propellerTip	3.002114e+00	3.027128e+02	3.857408e+01
0.00748932    	innerCylinder	6.008350e-01	6.598642e+01	2.449860e+01
0.00748932    	innerCylinder_slave	4.417544e-01	6.482045e+01	2.274221e+01
0.00748932    	propellerTip	1.960960e+00	3.024561e+02	3.846211e+01
0.00756317    	innerCylinder	6.080556e-01	6.627187e+01	2.457420e+01
0.00756317    	innerCylinder_slave	4.415103e-01	6.496879e+01	2.280957e+01
0.00756317    	propellerTip	2.686042e+00	3.023332e+02	3.835051e+01
0.00763717    	innerCylinder	6.137819e-01	6.667955e+01	2.465215e+01
0.00763717    	innerCylinder_slave	4.405768e-01	6.527245e+01	2.287718e+01
0.00763717    	propellerTip	2.544741e+00	3.021905e+02	3.820747e+01
0.00770994    	innerCylinder	6.178017e-01	6.719330e+01	2.473051e+01
0.00770994    	innerCylinder_slave	4.391542e-01	6.571596e+01	2.294396e+01
0.00770994    	propellerTip	2.447341e+00	3.024206e+02	3.808118e+01
0.00778247    	innerCylinder	6.203563e-01	6.780647e+01	2.480994e+01
0.00778247    	innerCylinder_slave	4.375627e-01	6.626470e+01	2.301162e+01
0.00778247    	propellerTip	2.429734e+00	3.025970e+02	3.795190e+01
0.00785624    	innerCylinder	6.216187e-01	6.858317e+01	2.489261e+01
0.00785624    	innerCylinder_slave	4.358078e-01	6.691857e+01	2.308151e+01
0.00785624    	propellerTip	1.880491e+00	3.028077e+02	3.780736e+01
0.0079299     	innerCylinder	6.215150e-01	6.925739e+01	2.497578e+01
0.0079299     	innerCylinder_slave	4.339521e-01	6.763689e+01	2.315231e+01
0.0079299     	propellerTip	1.255416e+00	3.027928e+02	3.771308e+01
0.00800396    	innerCylinder	6.204294e-01	6.998954e+01	2.506048e+01
0.00800396    	innerCylinder_slave	4.323306e-01	6.838122e+01	2.322410e+01
0.00800396    	propellerTip	1.926338e+00	3.027092e+02	3.761782e+01
0.00807835    	innerCylinder	6.181246e-01	7.066203e+01	2.514618e+01
0.00807835    	innerCylinder_slave	4.309798e-01	6.910470e+01	2.329618e+01
0.00807835    	propellerTip	2.844519e+00	3.022473e+02	3.758075e+01
0.00815276    	innerCylinder	6.149398e-01	7.119489e+01	2.523162e+01
0.00815276    	innerCylinder_slave	4.298759e-01	6.974158e+01	2.336782e+01
0.00815276    	propellerTip	2.902879e+00	3.016538e+02	3.754311e+01
0.00822691    	innerCylinder	6.111478e-01	7.155981e+01	2.531761e+01
0.00822691    	innerCylinder_slave	3.857982e-01	7.020435e+01	2.343983e+01
0.00822691    	propellerTip	2.866494e+00	3.009629e+02	3.751618e+01
0.00830088    	innerCylinder	6.065732e-01	7.174111e+01	2.540295e+01
0.00830088    	innerCylinder_slave	3.276535e-01	7.051349e+01	2.351186e+01
0.00830088    	propellerTip	2.600593e+00	3.000852e+02	3.749028e+01
0.00837444    	innerCylinder	6.009679e-01	7.170363e+01	2.548811e+01
0.00837444    	innerCylinder_slave	2.770142e-01	7.066368e+01	2.358487e+01
0.00837444    	propellerTip	2.812255e+00	2.992819e+02	3.743112e+01
0.00844749    	innerCylinder	5.949361e-01	7.173981e+01	2.557172e+01
0.00844749    	innerCylinder_slave	2.921543e-01	7.078792e+01	2.365840e+01
0.00844749    	propellerTip	2.580874e+00	2.987735e+02	3.740489e+01
0.00851999    	innerCylinder	5.887031e-01	7.181713e+01	2.565419e+01
0.00851999    	innerCylinder_slave	3.515431e-01	7.103100e+01	2.373247e+01
0.00851999    	propellerTip	2.777431e+00	2.985058e+02	3.740305e+01
0.00859297    	innerCylinder	5.818990e-01	7.176049e+01	2.573722e+01
0.00859297    	innerCylinder_slave	4.157710e-01	7.110398e+01	2.380870e+01
0.00859297    	propellerTip	2.317021e+00	2.985581e+02	3.740642e+01
0.0086664     	innerCylinder	5.754291e-01	7.157183e+01	2.582008e+01
0.0086664     	innerCylinder_slave	4.284298e-01	7.101830e+01	2.388665e+01
0.0086664     	propellerTip	1.964680e+00	2.988380e+02	3.746019e+01
0.00874026    	innerCylinder	5.707204e-01	7.127296e+01	2.590412e+01
0.00874026    	innerCylinder_slave	4.291612e-01	7.080056e+01	2.396611e+01
0.00874026    	propellerTip	2.767832e+00	2.994399e+02	3.748272e+01
0.00881431    	innerCylinder	5.690163e-01	7.085727e+01	2.598973e+01
0.00881431    	innerCylinder_slave	4.305034e-01	7.046136e+01	2.404716e+01
0.00881431    	propellerTip	2.377440e+00	3.002171e+02	3.745480e+01
0.00888842    	innerCylinder	5.703837e-01	7.033036e+01	2.607757e+01
0.00888842    	innerCylinder_slave	4.326395e-01	7.000854e+01	2.413013e+01
0.00888842    	propellerTip	2.347615e+00	3.012853e+02	3.747353e+01
0.00896266    	innerCylinder	5.745714e-01	6.974167e+01	2.616668e+01
0.00896266    	innerCylinder_slave	4.354861e-01	6.946216e+01	2.421485e+01
0.00896266    	propellerTip	2.454622e+00	3.025015e+02	3.750106e+01
0.00903711    	innerCylinder	5.744268e-01	6.913176e+01	2.625711e+01
0.00903711    	innerCylinder_slave	4.392915e-01	6.888262e+01	2.430216e+01
0.00903711    	propellerTip	2.274967e+00	3.037601e+02	3.750682e+01
0.00911137    	innerCylinder	5.727650e-01	6.849629e+01	2.634798e+01
0.00911137    	innerCylinder_slave	4.442440e-01	6.829471e+01	2.439318e+01
0.00911137    	propellerTip	2.023759e+00	3.050686e+02	3.754771e+01
0.00918537    	innerCylinder	5.742204e-01	6.785943e+01	2.643706e+01
0.00918537    	innerCylinder_slave	4.500537e-01	6.771117e+01	2.448760e+01
0.00918537    	propellerTip	2.033455e+00	3.062258e+02	3.751917e+01
0.00925929    	innerCylinder	5.807518e-01	6.724447e+01	2.652494e+01
0.00925929    	innerCylinder_slave	4.569371e-01	6.713858e+01	2.458736e+01
0.00925929    	propellerTip	1.981838e+00	3.072661e+02	3.755937e+01
0.00933337    	innerCylinder	5.937078e-01	6.665655e+01	2.660932e+01
0.00933337    	innerCylinder_slave	4.650134e-01	6.658003e+01	2.469123e+01
0.00933337    	propellerTip	2.019345e+00	3.082705e+02	3.756067e+01
0.00940688    	innerCylinder	6.125495e-01	6.614255e+01	2.668927e+01
0.00940688    	innerCylinder_slave	4.750247e-01	6.604920e+01	2.479743e+01
0.00940688    	propellerTip	2.087016e+00	3.090220e+02	3.759554e+01
0.00948021    	innerCylinder	6.332267e-01	6.571218e+01	2.676419e+01
0.00948021    	innerCylinder_slave	4.865974e-01	6.556191e+01	2.490455e+01
0.00948021    	propellerTip	2.040821e+00	3.097145e+02	3.766304e+01
0.00955332    	innerCylinder	6.496697e-01	6.553261e+01	2.683455e+01
0.00955332    	innerCylinder_slave	4.993367e-01	6.512376e+01	2.501059e+01
0.00955332    	propellerTip	1.997210e+00	3.102032e+02	3.767613e+01