# Probe 0 (0.128 0.01 0.01)
# Time        0            
0             (0 0 0)      
4.95555e-05   (-1.30713 0.024271 -0.338004)
9.65949e-05   (-1.94816 -0.074362 -0.382963)
0.000148559   (-2.62078 -0.143601 -0.261061)
0.000204734   (-3.19272 -0.134876 -0.0264693)
0.000263291   (-3.60223 -0.0652519 0.222705)
0.000323826   (-3.86754 0.0271262 0.435041)
0.000386333   (-4.02825 0.105739 0.596472)
0.000450692   (-4.11102 0.163745 0.708797)
0.000516493   (-4.13421 0.196663 0.779262)
0.000582279   (-4.11473 0.204548 0.816248)
0.000646827   (-4.06657 0.19427 0.829583)
0.000710045   (-4.00005 0.173349 0.827919)
0.000772102   (-3.92099 0.148036 0.817428)
0.000833109   (-3.82986 0.122825 0.80478)
0.000893273   (-3.72606 0.101107 0.792721)
0.000952873   (-3.61139 0.0837525 0.780626)
0.00101195    (-3.49054 0.0717526 0.766557)
0.00107026    (-3.36965 0.0646789 0.748834)
0.00112733    (-3.25458 0.0607035 0.727165)
0.00118392    (-3.14705 0.0573904 0.70096)
0.00123999    (-3.04812 0.0534304 0.670783)
0.00129571    (-2.95721 0.0479167 0.637408)
0.00135144    (-2.87261 0.0403408 0.602129)
0.00140754    (-2.79285 0.0314749 0.566124)
0.00146419    (-2.71783 0.0228496 0.53011)
0.0015212     (-2.64862 0.0155795 0.496136)
0.00157846    (-2.58503 0.0112486 0.465638)
0.0016364     (-2.52521 0.0126121 0.438446)
0.00169562    (-2.46864 0.021689 0.413459)
0.00175468    (-2.4167 0.0390507 0.389597)
0.00181401    (-2.36939 0.0633908 0.365661)
0.0018738     (-2.32693 0.093817 0.340868)
0.00193411    (-2.28998 0.129095 0.315237)
0.00199484    (-2.25853 0.167426 0.28918)
0.00205592    (-2.23279 0.206803 0.263181)
0.00211735    (-2.21338 0.250865 0.235208)
0.00217911    (-2.20184 0.295844 0.205616)
0.0022412     (-2.19935 0.339602 0.17434)
0.00230359    (-2.20665 0.380062 0.142792)
0.00236617    (-2.22565 0.412226 0.110957)
0.00242877    (-2.25502 0.436719 0.0819388)
0.00249128    (-2.29399 0.451074 0.0568224)
0.00255347    (-2.33998 0.456509 0.0390983)
0.00261518    (-2.38849 0.452494 0.0309002)
0.00267644    (-2.43439 0.441697 0.0335557)
0.00273744    (-2.47425 0.428551 0.0472085)
0.00279833    (-2.5062 0.417217 0.0689133)
0.0028595     (-2.53132 0.410852 0.0943816)
0.00292064    (-2.55112 0.411413 0.119996)
0.00298172    (-2.56681 0.417183 0.142618)
0.0030429     (-2.58069 0.426067 0.161105)
0.00310435    (-2.59501 0.434755 0.174191)
0.00316548    (-2.61115 0.439381 0.181368)
0.00322581    (-2.62886 0.436552 0.184169)
0.00328572    (-2.64738 0.424887 0.185505)
0.00334521    (-2.66475 0.405736 0.189511)
0.00340426    (-2.67957 0.384228 0.199521)
0.00346307    (-2.6915 0.369132 0.216448)
0.00352169    (-2.70163 0.371009 0.238606)
0.00357978    (-2.71255 0.398696 0.261238)
0.00363711    (-2.72751 0.459474 0.278402)
0.00369352    (-2.74881 0.5551 0.282565)
0.00374934    (-2.78173 0.68252 0.266052)
0.00380525    (-2.83203 0.834403 0.220241)
0.00386155    (-2.90499 1.00006 0.139465)
0.00391863    (-3.00293 1.16656 0.0217572)
0.00397671    (-3.12446 1.31777 -0.134836)
0.00403589    (-3.26782 1.44086 -0.316758)
0.00409642    (-3.42745 1.52811 -0.515314)
0.00415844    (-3.60962 1.5753 -0.714771)
0.00422121    (-3.82021 1.58494 -0.901299)
0.00428493    (-4.06272 1.55766 -1.05672)
0.00435057    (-4.34346 1.49493 -1.16846)
0.00441818    (-4.66312 1.40952 -1.21539)
0.00448684    (-5.00897 1.3275 -1.18242)
0.00455619    (-5.36158 1.27517 -1.07458)
0.004626      (-5.70669 1.27429 -0.91626)
0.0046961     (-6.01904 1.32771 -0.736693)
0.00476629    (-6.289 1.42026 -0.553598)
0.00483652    (-6.51164 1.546 -0.388452)
0.00490685    (-6.68613 1.69011 -0.250296)
0.00497733    (-6.81649 1.83551 -0.147847)
0.00504804    (-6.90638 1.96814 -0.0827201)
0.00511853    (-6.96131 2.07986 -0.0511295)
0.00518862    (-6.98841 2.16497 -0.0462029)
0.00525843    (-6.99453 2.22243 -0.0603999)
0.00532805    (-6.98514 2.25436 -0.0878278)
0.0053976     (-6.96389 2.2626 -0.121532)
0.00546717    (-6.93745 2.25056 -0.156859)
0.00553681    (-6.90909 2.22278 -0.189054)
0.00560664    (-6.88221 2.1836 -0.214673)
0.00567675    (-6.85908 2.13739 -0.231417)
0.00574732    (-6.83954 2.08865 -0.238081)
0.00581849    (-6.82336 2.04138 -0.235124)
0.00589043    (-6.81036 1.99972 -0.224839)
0.00596241    (-6.79983 1.96755 -0.209972)
0.00603391    (-6.78931 1.94799 -0.193687)
0.00610493    (-6.77833 1.94154 -0.179844)
0.00617551    (-6.76975 1.94904 -0.173417)
0.00624565    (-6.76983 1.96744 -0.177789)
0.00631546    (-6.78504 1.99264 -0.194135)
0.00638491    (-6.8167 2.02293 -0.22044)
0.00645401    (-6.8626 2.05714 -0.255348)
0.00652292    (-6.91985 2.09596 -0.298295)
0.00659179    (-6.98465 2.1384 -0.349608)
0.0066607     (-7.05631 2.18293 -0.415064)
0.00672976    (-7.13348 2.2278 -0.499571)
0.00679904    (-7.21374 2.27214 -0.604102)
0.00686853    (-7.28994 2.31713 -0.728605)
0.00693823    (-7.35445 2.36465 -0.873413)
0.00700814    (-7.40067 2.41538 -1.03662)
0.00707824    (-7.42344 2.47116 -1.21465)
0.0071485     (-7.42342 2.52797 -1.40314)
0.00721896    (-7.40194 2.58379 -1.59584)
0.00728961    (-7.36454 2.63744 -1.78308)
0.00736044    (-7.31912 2.68582 -1.95589)
0.00743145    (-7.27261 2.72119 -2.10483)
0.00750263    (-7.23554 2.74217 -2.22227)
0.00757399    (-7.20886 2.74964 -2.30406)
0.0076455     (-7.18777 2.74504 -2.34793)
0.0077171     (-7.16629 2.73011 -2.35519)
0.00778868    (-7.13949 2.70873 -2.33152)
0.00786019    (-7.10702 2.68391 -2.28687)
0.00793159    (-7.07068 2.65507 -2.23265)
0.00800294    (-7.03401 2.61913 -2.1796)
0.00807431    (-7.00267 2.5704 -2.13484)
0.00814581    (-6.98108 2.50328 -2.10087)
0.00821749    (-6.97312 2.41466 -2.07546)
0.00828934    (-6.9825 2.30411 -2.05165)
0.0083613     (-7.01415 2.1758 -2.01789)
0.00843337    (-7.07275 2.03747 -1.96309)
0.00850553    (-7.16268 1.89942 -1.88007)
0.00857777    (-7.28659 1.77892 -1.76868)
0.00865005    (-7.4464 1.68647 -1.63652)
0.00872237    (-7.63679 1.62991 -1.49688)
0.00879467    (-7.84513 1.61477 -1.36542)
0.00886692    (-8.05534 1.64586 -1.25604)
0.00893911    (-8.25107 1.72176 -1.18221)
0.00901124    (-8.41687 1.84246 -1.15126)
0.00908339    (-8.54153 1.99804 -1.16578)
0.00915561    (-8.61978 2.16951 -1.22211)
0.00922798    (-8.64901 2.33827 -1.31023)
0.0093005     (-8.6371 2.47933 -1.41838)
0.00937315    (-8.59282 2.57985 -1.53007)
0.00944592    (-8.52259 2.63348 -1.63221)
0.00951881    (-8.43393 2.63837 -1.71404)
0.0095918     (-8.33273 2.60162 -1.77036)
0.00966473    (-8.22526 2.53498 -1.79853)
0.00973763    (-8.11625 2.45167 -1.80074)
0.00981052    (-8.00904 2.36476 -1.78206)
0.00988344    (-7.90626 2.28498 -1.75124)
0.0099564     (-7.80907 2.2203 -1.71774)
0.0100294     (-7.71657 2.17698 -1.69075)
0.0101025     (-7.62532 2.15902 -1.67863)
0.0101755     (-7.53094 2.16852 -1.68881)
0.0102486     (-7.43143 2.20487 -1.72769)
0.0103216     (-7.32434 2.26523 -1.79795)
0.0103946     (-7.20728 2.34468 -1.89862)
0.0104675     (-7.08071 2.43554 -2.02587)
0.0105404     (-6.94788 2.52989 -2.17408)
0.0106131     (-6.81329 2.62037 -2.33485)
0.0106859     (-6.67763 2.70068 -2.49824)
0.0107586     (-6.54743 2.76843 -2.65721)
0.0108313     (-6.42921 2.82262 -2.80769)
0.010904      (-6.32523 2.85953 -2.94443)
0.0109767     (-6.23661 2.88095 -3.06364)
0.0110495     (-6.16517 2.892 -3.1624)
0.0111224     (-6.11243 2.89656 -3.23884)
0.0111953     (-6.07827 2.89574 -3.29262)
0.0112684     (-6.06026 2.89368 -3.32701)
0.0113417     (-6.05747 2.89205 -3.34691)
0.0114152     (-6.0687 2.89119 -3.35679)
0.0114891     (-6.09313 2.88966 -3.35944)
0.0115633     (-6.13115 2.88639 -3.35555)
0.0116379     (-6.18438 2.88149 -3.34756)
0.0117129     (-6.25271 2.87561 -3.33911)
0.0117884     (-6.33315 2.86959 -3.33145)
0.0118641     (-6.42009 2.86545 -3.32592)
0.0119398     (-6.50796 2.86605 -3.32444)
0.0120155     (-6.59245 2.87238 -3.32927)
0.0120912     (-6.67044 2.88312 -3.34265)
0.0121669     (-6.73906 2.89565 -3.36611)
0.0122427     (-6.79706 2.90615 -3.40055)
0.0123184     (-6.84582 2.91034 -3.4462)
0.0123942     (-6.88736 2.90461 -3.5023)
0.0124699     (-6.92474 2.88642 -3.56783)
0.0125456     (-6.96201 2.85509 -3.64235)
0.0126213     (-7.00307 2.81205 -3.7269)
0.012697      (-7.04941 2.76145 -3.82341)
0.0127726     (-7.10122 2.7093 -3.93469)
0.0128483     (-7.15608 2.66414 -4.06278)
0.0129239     (-7.20944 2.63529 -4.20745)
0.0129994     (-7.25494 2.63118 -4.3664)
0.0130749     (-7.2846 2.65761 -4.53545)
0.0131503     (-7.29107 2.71519 -4.7072)
0.0132257     (-7.26895 2.80025 -4.87155)
0.0133011     (-7.2177 2.903 -5.01588)
0.0133764     (-7.14269 3.01052 -5.12862)
0.0134518     (-7.05405 3.10894 -5.20117)
0.0135273     (-6.96103 3.18718 -5.23003)
0.0136027     (-6.87214 3.23903 -5.21605)
0.0136778     (-6.79303 3.26144 -5.16298)
0.0137526     (-6.72583 3.25527 -5.07641)
0.0138272     (-6.67062 3.22359 -4.96282)
0.0139017     (-6.62659 3.17156 -4.82905)
0.0139762     (-6.59319 3.10469 -4.68136)
0.0140509     (-6.57226 3.02995 -4.52176)
0.0141256     (-6.5661 2.9546 -4.35029)
0.0142004     (-6.57471 2.88497 -4.16736)
0.0142751     (-6.59628 2.82576 -3.97572)
0.0143498     (-6.62931 2.77963 -3.77945)
0.0144243     (-6.67234 2.74657 -3.58207)
0.0144987     (-6.72463 2.72454 -3.38619)
0.014573      (-6.78581 2.71042 -3.19319)
0.0146473     (-6.85523 2.70152 -3.00237)
0.0147214     (-6.9316 2.69518 -2.81254)
0.0147955     (-7.01376 2.68935 -2.6229)
0.0148695     (-7.10021 2.68222 -2.43323)
0.0149434     (-7.19009 2.67324 -2.2433)
0.0150172     (-7.28226 2.66193 -2.0528)
0.0150909     (-7.37533 2.65027 -1.86377)
0.0151645     (-7.46833 2.63855 -1.6794)
0.0152379     (-7.56096 2.62698 -1.50299)
0.0153111     (-7.65379 2.61512 -1.33548)
0.0153842     (-7.74461 2.60185 -1.17883)
0.0154573     (-7.83402 2.58515 -1.03472)
0.0155302     (-7.91938 2.56719 -0.904044)
0.0156031     (-7.99937 2.54821 -0.785622)
0.015676      (-8.07374 2.52966 -0.680292)
0.0157487     (-8.14267 2.5092 -0.588647)
0.0158214     (-8.20657 2.48764 -0.511215)
0.015894      (-8.26379 2.46625 -0.447571)
0.0159665     (-8.31449 2.44598 -0.398672)
0.0160389     (-8.35819 2.42766 -0.364471)
0.0161112     (-8.39654 2.41077 -0.344294)
0.0161834     (-8.43106 2.39454 -0.336184)
0.0162556     (-8.46228 2.37807 -0.337266)
0.0163279     (-8.48979 2.36062 -0.34519)
0.0164002     (-8.5131 2.34149 -0.357823)
0.0164725     (-8.53181 2.3203 -0.372748)
0.016545      (-8.54609 2.29714 -0.387634)
0.0166175     (-8.55629 2.27252 -0.401043)
0.0166901     (-8.56223 2.24747 -0.412593)
0.0167628     (-8.56492 2.22296 -0.423115)
0.0168355     (-8.56561 2.19906 -0.434592)
0.0169083     (-8.5665 2.17495 -0.448922)
0.0169813     (-8.56916 2.15033 -0.466779)
0.0170543     (-8.57345 2.12563 -0.488016)
0.0171273     (-8.57849 2.10162 -0.512177)
0.0172005     (-8.5833 2.07948 -0.53918)
0.0172737     (-8.58704 2.05992 -0.569107)
0.017347      (-8.58927 2.043 -0.601935)
0.0174203     (-8.59025 2.02788 -0.636796)
0.0174936     (-8.59032 2.01393 -0.672503)
0.017567      (-8.58931 1.99989 -0.706719)
0.0176404     (-8.58687 1.98485 -0.737057)
0.0177138     (-8.58247 1.96779 -0.762108)
0.0177873     (-8.57581 1.94704 -0.780939)
0.0178608     (-8.56698 1.92306 -0.792846)
0.0179344     (-8.55634 1.89587 -0.798174)
0.0180079     (-8.54419 1.86517 -0.798423)
0.0180815     (-8.53077 1.83053 -0.795729)
0.018155      (-8.51631 1.79215 -0.791487)
0.0182286     (-8.50071 1.75107 -0.787658)
0.0183021     (-8.48382 1.70865 -0.786205)
0.0183755     (-8.46522 1.66594 -0.787964)
0.018449      (-8.44452 1.62313 -0.792793)
0.0185224     (-8.42118 1.58243 -0.801065)
0.0185957     (-8.39508 1.54425 -0.813875)
0.0186689     (-8.36754 1.50878 -0.829715)
0.0187421     (-8.3387 1.47602 -0.845801)
0.0188152     (-8.30827 1.44614 -0.860915)
0.0188882     (-8.27628 1.41895 -0.874384)
0.0189612     (-8.24291 1.39382 -0.885688)
0.019034      (-8.20849 1.37018 -0.89419)
0.0191067     (-8.17334 1.34767 -0.899368)
0.0191794     (-8.13767 1.32577 -0.900951)
0.019252      (-8.10209 1.30404 -0.898827)
0.0193245     (-8.06699 1.28202 -0.893009)
0.0193969     (-8.03221 1.25899 -0.883627)
0.0194692     (-7.9983 1.2349 -0.870661)
0.0195415     (-7.96559 1.20965 -0.854024)
0.0196138     (-7.93468 1.18313 -0.833557)
0.019686      (-7.90586 1.15575 -0.809109)
0.0197581     (-7.87898 1.1272 -0.780607)
0.0198303     (-7.85344 1.09869 -0.748686)
0.0199024     (-7.82931 1.06973 -0.713549)
0.0199745     (-7.80593 1.04088 -0.675824)
0.0200465     (-7.78299 1.01216 -0.636909)
0.0201186     (-7.75989 0.983948 -0.597925)
0.0201906     (-7.73658 0.956251 -0.559496)
0.0202626     (-7.71506 0.929166 -0.521616)
0.0203345     (-7.69437 0.904004 -0.484558)
0.0204063     (-7.67507 0.879143 -0.449264)
0.0204781     (-7.65828 0.854085 -0.416163)
0.0205498     (-7.64452 0.828829 -0.385074)
0.0206215     (-7.63302 0.803904 -0.355769)
0.0206931     (-7.62306 0.779026 -0.325631)
0.0207647     (-7.61397 0.754297 -0.295831)
0.0208362     (-7.60529 0.729844 -0.267148)
0.0209077     (-7.5963 0.706017 -0.23937)
0.0209792     (-7.58707 0.682793 -0.212823)
0.0210506     (-7.57776 0.660333 -0.188092)
0.021122      (-7.56784 0.637971 -0.164864)
0.0211934     (-7.55809 0.616355 -0.143244)
0.0212647     (-7.54836 0.595863 -0.124086)
0.021336      (-7.53804 0.576221 -0.107381)
0.0214073     (-7.52746 0.557206 -0.0930633)
0.0214785     (-7.51657 0.539082 -0.0814336)
0.0215497     (-7.50526 0.522003 -0.0726194)
0.0216209     (-7.49383 0.505805 -0.0664435)
0.0216921     (-7.48225 0.490293 -0.0627488)
0.0217632     (-7.47067 0.475427 -0.0612542)
0.0218343     (-7.45909 0.462497 -0.0621857)
0.0219054     (-7.44749 0.449819 -0.0648956)
0.0219766     (-7.43595 0.437732 -0.0689546)
0.0220477     (-7.42443 0.426187 -0.0741731)
0.0221188     (-7.41288 0.415308 -0.0808323)
0.02219       (-7.40123 0.40497 -0.0881167)
0.0222611     (-7.38945 0.395318 -0.0959448)
0.0223323     (-7.37749 0.386476 -0.104335)
0.0224036     (-7.36524 0.378128 -0.113417)
0.0224748     (-7.35257 0.370334 -0.123187)
0.0225462     (-7.33949 0.363222 -0.133664)
0.0226175     (-7.32609 0.356885 -0.144864)
0.022689      (-7.31257 0.351355 -0.15695)
0.0227604     (-7.29911 0.346668 -0.170013)
0.022832      (-7.28575 0.342782 -0.184062)
0.0229036     (-7.27264 0.339781 -0.199085)
0.0229752     (-7.25993 0.337636 -0.215154)
0.0230469     (-7.24745 0.335381 -0.231533)
0.0231187     (-7.2349 0.333912 -0.248306)
0.0231904     (-7.22234 0.333584 -0.265851)
0.0232623     (-7.21008 0.334026 -0.284204)
0.0233341     (-7.19825 0.334973 -0.30365)
0.023406      (-7.18663 0.33648 -0.3232)
0.0234779     (-7.17504 0.338056 -0.341987)
0.0235498     (-7.16328 0.340578 -0.360735)
0.0236218     (-7.15121 0.343342 -0.37929)
0.0236937     (-7.13872 0.34644 -0.397773)
0.0237657     (-7.1258 0.350077 -0.416145)
0.0238376     (-7.11252 0.354296 -0.434071)
0.0239096     (-7.09897 0.359048 -0.451224)
0.0239814     (-7.0847 0.364188 -0.467744)
0.0240533     (-7.07031 0.369551 -0.483585)
0.0241251     (-7.05624 0.375116 -0.498727)
0.024197      (-7.04265 0.380905 -0.512572)
0.0242688     (-7.02928 0.386592 -0.525349)
0.0243406     (-7.01561 0.391693 -0.536785)
0.0244125     (-7.00109 0.396287 -0.546461)
0.0244844     (-6.98591 0.400288 -0.554063)
0.0245563     (-6.97051 0.403708 -0.559579)
0.0246282     (-6.95506 0.406894 -0.563046)
0.0247001     (-6.93919 0.410256 -0.56443)
0.0247719     (-6.92278 0.413906 -0.563787)
0.0248436     (-6.90645 0.417761 -0.561576)
0.0249153     (-6.89152 0.42147 -0.558268)
0.0249869     (-6.87961 0.42445 -0.554093)
0.0250584     (-6.8717 0.426198 -0.548478)
0.0251298     (-6.86715 0.426659 -0.540208)
0.0252013     (-6.864 0.426231 -0.528414)
0.0252727     (-6.86096 0.425478 -0.513027)
0.0253441     (-6.85692 0.424614 -0.495031)
0.0254156     (-6.85206 0.423519 -0.475611)
0.0254871     (-6.84719 0.421971 -0.455356)
0.0255585     (-6.84286 0.420028 -0.434435)
0.0256299     (-6.83944 0.417892 -0.412921)
0.0257013     (-6.83689 0.415852 -0.390999)
0.0257726     (-6.83543 0.414044 -0.368923)
0.0258439     (-6.83541 0.4125 -0.347484)
0.025915      (-6.83742 0.411001 -0.326984)
0.0259861     (-6.84213 0.408946 -0.306402)
0.0260572     (-6.8495 0.40578 -0.286005)
0.0261282     (-6.85871 0.403275 -0.265912)
0.0261993     (-6.86869 0.400027 -0.2465)
0.0262703     (-6.87889 0.396121 -0.228012)
0.0263414     (-6.88879 0.391823 -0.210168)
0.0264125     (-6.89793 0.386925 -0.192941)
0.0264836     (-6.9066 0.382058 -0.17694)
0.0265546     (-6.91473 0.377667 -0.162357)
0.0266257     (-6.92165 0.374271 -0.148667)
0.0266967     (-6.92763 0.371691 -0.136547)
0.0267676     (-6.93367 0.369651 -0.126718)
0.0268385     (-6.94108 0.367693 -0.119546)
0.0269094     (-6.95101 0.365217 -0.114732)
0.0269802     (-6.96329 0.361914 -0.111104)
0.0270511     (-6.9763 0.358153 -0.107365)
0.027122      (-6.98805 0.354527 -0.103195)
0.027193      (-6.99753 0.351363 -0.099071)
0.027264      (-7.00484 0.348651 -0.0955429)
0.027335      (-7.01041 0.346323 -0.0929236)
0.0274061     (-7.0147 0.344399 -0.0913412)
0.0274773     (-7.01806 0.343024 -0.0907719)
0.0275484     (-7.02069 0.342385 -0.0911128)
0.0276196     (-7.02271 0.34266 -0.0923593)
0.0276907     (-7.02446 0.343874 -0.0947167)
0.0277618     (-7.02657 0.345925 -0.0983483)
0.027833      (-7.02947 0.348666 -0.103141)
0.0279041     (-7.03315 0.351897 -0.108956)
0.0279754     (-7.0372 0.35532 -0.115707)
0.0280467     (-7.04104 0.358633 -0.123384)
0.0281181     (-7.04401 0.361643 -0.131432)
0.0281895     (-7.04569 0.36458 -0.139438)
0.028261      (-7.04579 0.367969 -0.147572)
0.0283326     (-7.04435 0.372212 -0.155948)
0.0284042     (-7.0412 0.377617 -0.164588)
0.0284757     (-7.03637 0.384555 -0.173709)
0.0285473     (-7.03067 0.39291 -0.184369)
0.0286188     (-7.02564 0.401543 -0.19718)
0.0286903     (-7.02294 0.410239 -0.212638)
0.0287618     (-7.0231 0.418425 -0.229385)
0.0288333     (-7.02516 0.425887 -0.245756)
0.0289049     (-7.0269 0.433122 -0.260794)
0.0289765     (-7.02626 0.440742 -0.274716)
0.0290482     (-7.02292 0.448358 -0.287876)
0.02912       (-7.01726 0.457611 -0.300771)
0.0291918     (-7.00967 0.467156 -0.314498)
0.0292637     (-7.00078 0.476545 -0.32832)
0.0293355     (-6.99099 0.4861 -0.341689)
0.0294074     (-6.98037 0.496015 -0.355334)
0.0294793     (-6.96897 0.506343 -0.369445)
0.0295511     (-6.95745 0.51696 -0.384026)
0.0296229     (-6.94691 0.527482 -0.398962)
0.0296946     (-6.93836 0.537532 -0.413948)
0.0297664     (-6.93178 0.546864 -0.428114)
0.0298382     (-6.92605 0.555601 -0.440386)
0.02991       (-6.91969 0.56389 -0.450455)
0.0299818     (-6.91191 0.571692 -0.458649)
0.0300537     (-6.90268 0.578874 -0.465211)
0.0301257     (-6.89246 0.585523 -0.47022)
0.0301976     (-6.88161 0.591938 -0.473602)
0.0302695     (-6.87033 0.598515 -0.475274)
0.0303414     (-6.85879 0.605424 -0.475419)
0.0304132     (-6.84755 0.612732 -0.474384)
0.0304849     (-6.83759 0.620146 -0.472522)
0.0305566     (-6.83007 0.627132 -0.470009)
0.0306283     (-6.82557 0.633281 -0.466435)
0.0306999     (-6.82333 0.638585 -0.460923)
0.0307715     (-6.82165 0.643289 -0.452968)
0.0308432     (-6.81926 0.64752 -0.442919)
0.0309149     (-6.81573 0.651126 -0.431383)
0.0309866     (-6.81137 0.653988 -0.418717)
0.0310583     (-6.80669 0.656288 -0.405128)
0.03113       (-6.80205 0.658403 -0.390768)
0.0312016     (-6.79753 0.660693 -0.376044)
0.0312732     (-6.79351 0.663267 -0.361451)
0.0313448     (-6.79054 0.665998 -0.347578)
0.0314162     (-6.7894 0.668642 -0.334857)
0.0314877     (-6.79105 0.670964 -0.322529)
0.031559      (-6.79564 0.672608 -0.310271)
0.0316304     (-6.80207 0.673812 -0.297999)
0.0317019     (-6.8088 0.674231 -0.284927)
0.0317733     (-6.81468 0.674376 -0.271825)
0.0318448     (-6.81924 0.674056 -0.259246)
0.0319164     (-6.82282 0.673416 -0.247241)
0.0319879     (-6.82584 0.673029 -0.235879)
0.0320594     (-6.82852 0.673295 -0.225474)
0.032131      (-6.83116 0.674401 -0.216441)
0.0322024     (-6.83449 0.676199 -0.209102)
0.0322738     (-6.83934 0.678399 -0.203572)
0.0323452     (-6.84639 0.680725 -0.199829)
0.0324165     (-6.85588 0.682982 -0.197445)
0.0324879     (-6.86721 0.685063 -0.19568)
0.0325593     (-6.87887 0.687154 -0.193957)
0.0326307     (-6.88947 0.689423 -0.192343)
0.0327023     (-6.89836 0.69186 -0.191167)
0.0327738     (-6.90562 0.694433 -0.190546)
0.0328455     (-6.91158 0.697387 -0.190466)
0.0329171     (-6.91634 0.701201 -0.190936)
0.0329887     (-6.92017 0.706114 -0.192348)
0.0330603     (-6.92402 0.712029 -0.195227)
0.0331318     (-6.92888 0.718631 -0.199642)
0.0332034     (-6.93542 0.725563 -0.205376)
0.0332748     (-6.9438 0.732645 -0.212095)
0.0333463     (-6.95358 0.739772 -0.219295)
0.0334179     (-6.96381 0.74699 -0.226425)
0.0334894     (-6.97312 0.75444 -0.233295)
0.0335611     (-6.98061 0.76199 -0.240231)
0.0336328     (-6.98617 0.769267 -0.247398)
0.0337046     (-6.99001 0.776279 -0.254764)
0.0337765     (-6.99258 0.783725 -0.262396)
0.0338483     (-6.99392 0.79213 -0.270451)
0.0339201     (-6.99461 0.801517 -0.279403)
0.0339919     (-6.99574 0.811426 -0.289847)
0.0340636     (-6.99824 0.821512 -0.301619)
0.0341353     (-7.00236 0.831409 -0.314151)
0.0342069     (-7.00784 0.841317 -0.326274)
0.0342786     (-7.01418 0.851094 -0.337741)
0.0343503     (-7.02031 0.860658 -0.348404)
0.0344221     (-7.02504 0.869926 -0.358922)
0.034494      (-7.02783 0.878889 -0.369359)
0.0345659     (-7.02871 0.887311 -0.379706)
0.0346378     (-7.02789 0.895306 -0.389817)
0.0347098     (-7.02566 0.903304 -0.399558)
0.0347818     (-7.02218 0.911759 -0.409046)
0.0348537     (-7.01812 0.920706 -0.418801)
0.0349256     (-7.01478 0.9297 -0.429095)
0.0349974     (-7.0129 0.938354 -0.439611)
0.0350691     (-7.01255 0.946493 -0.449706)
0.0351409     (-7.01333 0.954135 -0.459027)
0.0352126     (-7.01469 0.961276 -0.46727)
0.0352844     (-7.01564 0.967932 -0.47419)
0.0353562     (-7.01528 0.974054 -0.47985)
0.0354281     (-7.0134 0.979411 -0.484448)
0.0355001     (-7.00995 0.983865 -0.487927)
0.035572      (-7.00516 0.987624 -0.490159)
0.0356439     (-6.99927 0.991207 -0.491128)
0.0357159     (-6.99258 0.995044 -0.491087)
0.0357877     (-6.98591 0.999112 -0.490674)
0.0358595     (-6.9805 1.00298 -0.490216)
0.0359312     (-6.97705 1.00632 -0.489354)
0.0360028     (-6.97542 1.00905 -0.487616)
0.0360745     (-6.97522 1.01118 -0.484815)
0.0361461     (-6.97575 1.01269 -0.480745)
0.0362178     (-6.97591 1.01371 -0.47535)
0.0362895     (-6.97501 1.01408 -0.468867)
0.0363613     (-6.97298 1.01361 -0.46147)
0.0364331     (-6.96978 1.0124 -0.45315)
0.0365048     (-6.96569 1.01078 -0.443986)
0.0365766     (-6.9609 1.00929 -0.43419)
0.0366483     (-6.95584 1.00826 -0.424342)
0.03672       (-6.95161 1.0075 -0.415171)
0.0367916     (-6.94934 1.00658 -0.406813)
0.0368631     (-6.94928 1.0053 -0.398854)
0.0369346     (-6.95106 1.00354 -0.390932)
0.0370061     (-6.9541 1.00129 -0.382815)
0.0370776     (-6.9575 0.998476 -0.374127)
0.0371491     (-6.96029 0.995005 -0.364636)
0.0372207     (-6.96193 0.990722 -0.354443)
0.0372924     (-6.96219 0.985585 -0.343632)
0.037364      (-6.96106 0.97995 -0.331267)
0.0374357     (-6.95881 0.974818 -0.317383)
0.0375073     (-6.95553 0.970582 -0.302585)
0.0375788     (-6.95182 0.967355 -0.288554)
0.0376503     (-6.94885 0.96412 -0.276082)
0.0377218     (-6.94759 0.961142 -0.265211)
0.0377932     (-6.94792 0.958609 -0.255974)
0.0378646     (-6.94943 0.956215 -0.248616)
0.037936      (-6.95174 0.95393 -0.243229)
0.0380075     (-6.95407 0.951772 -0.239615)
0.038079      (-6.95577 0.94968 -0.237705)
0.0381506     (-6.95676 0.947493 -0.237272)
0.0382223     (-6.95703 0.945267 -0.237871)
0.0382941     (-6.95664 0.943287 -0.239079)
0.0383659     (-6.95584 0.942109 -0.240607)
0.0384377     (-6.9548 0.942235 -0.24248)
0.0385095     (-6.95403 0.943736 -0.245186)
0.0385812     (-6.95458 0.9462 -0.24926)
0.0386529     (-6.95709 0.948827 -0.254326)
0.0387246     (-6.96127 0.952035 -0.259903)
0.0387962     (-6.96624 0.955727 -0.265583)
0.0388679     (-6.97117 0.959884 -0.271382)
0.0389395     (-6.9752 0.964357 -0.277364)
0.0390112     (-6.97785 0.969047 -0.283782)
0.039083      (-6.97899 0.973744 -0.290857)
0.0391549     (-6.97853 0.978308 -0.298464)
0.0392267     (-6.97646 0.982745 -0.306463)
0.0392986     (-6.97282 0.987436 -0.314771)
0.0393706     (-6.96776 0.99292 -0.322899)
0.0394425     (-6.96163 0.999244 -0.331328)
0.0395143     (-6.95533 1.00643 -0.339788)
0.0395862     (-6.94973 1.01377 -0.349205)
0.0396581     (-6.9451 1.02117 -0.359076)
0.0397299     (-6.94132 1.02859 -0.368975)
0.0398017     (-6.93819 1.03593 -0.378625)
0.0398736     (-6.93521 1.04319 -0.387663)
0.0399455     (-6.93172 1.05036 -0.395926)
0.0400175     (-6.9276 1.05738 -0.403639)
0.0400895     (-6.92286 1.06408 -0.410876)
0.0401615     (-6.91736 1.07037 -0.417569)
0.0402336     (-6.91108 1.07654 -0.423651)
0.0403056     (-6.90403 1.08283 -0.429113)
0.0403776     (-6.89637 1.08941 -0.434197)
0.0404496     (-6.88862 1.09617 -0.439301)
0.0405216     (-6.8814 1.10288 -0.444544)
0.0405935     (-6.87505 1.10939 -0.449748)
0.0406654     (-6.86965 1.11548 -0.45476)
0.0407373     (-6.86515 1.12099 -0.45934)
0.0408092     (-6.86109 1.12586 -0.463198)
0.0408811     (-6.85696 1.13012 -0.466245)
0.040953      (-6.85255 1.13372 -0.468437)
0.041025      (-6.84777 1.1367 -0.469706)
0.0410969     (-6.84252 1.13921 -0.469974)
0.0411689     (-6.83679 1.14155 -0.469236)
0.0412409     (-6.83063 1.14396 -0.467598)
0.0413128     (-6.82428 1.14656 -0.465369)
0.0413847     (-6.81822 1.14927 -0.462893)
0.0414566     (-6.81292 1.1519 -0.460238)
0.0415284     (-6.8086 1.15428 -0.457248)
0.0416002     (-6.80527 1.15634 -0.453816)
0.041672      (-6.80269 1.15801 -0.449855)
0.0417438     (-6.8005 1.15931 -0.445355)
0.0418155     (-6.79842 1.16022 -0.440338)
0.0418873     (-6.7963 1.1607 -0.43481)
0.0419592     (-6.79406 1.16069 -0.428778)
0.042031      (-6.79164 1.16033 -0.422191)
0.0421028     (-6.78898 1.15981 -0.415109)
0.0421746     (-6.78611 1.15935 -0.407652)
0.0422464     (-6.78321 1.15907 -0.400127)
0.0423181     (-6.78071 1.15897 -0.392844)
0.0423898     (-6.77896 1.15893 -0.385937)
0.0424615     (-6.77821 1.15876 -0.379347)
0.0425331     (-6.77843 1.1584 -0.372976)
0.0426048     (-6.77937 1.15787 -0.366727)
0.0426764     (-6.78072 1.15718 -0.360609)
0.042748      (-6.78217 1.15639 -0.354623)
0.0428197     (-6.78367 1.15545 -0.348864)
0.0428914     (-6.78524 1.15428 -0.343374)
0.0429631     (-6.78682 1.15291 -0.338174)
0.0430348     (-6.78831 1.1515 -0.333241)
0.0431065     (-6.78965 1.15031 -0.328107)
0.0431782     (-6.7908 1.14946 -0.323246)
0.0432498     (-6.79192 1.149 -0.318955)
0.0433215     (-6.79331 1.14884 -0.315489)
0.0433931     (-6.79525 1.14917 -0.312739)
0.0434648     (-6.79785 1.14955 -0.310727)
0.0435364     (-6.80097 1.14999 -0.309393)
0.043608      (-6.80434 1.15056 -0.308597)
0.0436797     (-6.80766 1.15126 -0.308272)
0.0437513     (-6.81078 1.15208 -0.308442)
0.043823      (-6.81367 1.15295 -0.309148)
0.0438947     (-6.81634 1.15387 -0.310363)
0.0439664     (-6.81879 1.15487 -0.311989)
0.0440381     (-6.82093 1.1561 -0.313882)
0.0441099     (-6.82272 1.15766 -0.316008)
0.0441816     (-6.82418 1.15961 -0.318452)
0.0442534     (-6.8254 1.16195 -0.321303)
0.0443251     (-6.82659 1.16477 -0.324606)
0.0443968     (-6.82791 1.16786 -0.328386)
0.0444686     (-6.82941 1.17115 -0.332368)
0.0445403     (-6.831 1.17457 -0.336634)
0.0446121     (-6.83256 1.1781 -0.341227)
0.0446838     (-6.83394 1.18169 -0.346008)
0.0447556     (-6.83506 1.18536 -0.35089)
0.0448274     (-6.8359 1.18911 -0.355823)
0.0448992     (-6.83646 1.19293 -0.360781)
0.0449711     (-6.8367 1.19685 -0.365708)
0.0450429     (-6.83667 1.20087 -0.370633)
0.0451147     (-6.83639 1.20521 -0.375516)
0.0451866     (-6.83593 1.2099 -0.380455)
0.0452584     (-6.83537 1.21459 -0.385432)
0.0453303     (-6.83479 1.21927 -0.390405)
0.0454021     (-6.83421 1.22392 -0.395323)
0.045474      (-6.83363 1.22852 -0.400137)
0.0455458     (-6.83305 1.23299 -0.404782)
0.0456177     (-6.83243 1.23735 -0.409224)
0.0456896     (-6.83173 1.24159 -0.413382)
0.0457614     (-6.83088 1.24568 -0.417218)
0.0458333     (-6.82989 1.24961 -0.420676)
0.0459052     (-6.82878 1.2534 -0.423702)
0.045977      (-6.82752 1.25704 -0.426301)
0.0460489     (-6.82612 1.26053 -0.428458)
0.0461208     (-6.82462 1.26384 -0.430156)
0.0461926     (-6.82308 1.26693 -0.431387)
0.0462645     (-6.82154 1.26982 -0.432139)
0.0463363     (-6.82004 1.2725 -0.432399)
0.0464082     (-6.81858 1.27494 -0.432156)
0.04648       (-6.81717 1.27712 -0.431396)
0.0465518     (-6.81578 1.27906 -0.430111)
0.0466236     (-6.81439 1.28078 -0.428308)
0.0466954     (-6.81299 1.2823 -0.426009)
0.0467672     (-6.81159 1.28364 -0.423237)
0.046839      (-6.81024 1.28481 -0.420018)
0.0469108     (-6.80892 1.28582 -0.416414)
0.0469825     (-6.80769 1.28668 -0.412473)
0.0470543     (-6.80656 1.28743 -0.408212)
0.047126      (-6.80556 1.28809 -0.403663)
0.0471978     (-6.8047 1.28857 -0.3988)
0.0472695     (-6.804 1.2889 -0.393632)
0.0473412     (-6.80345 1.28909 -0.388215)
0.0474129     (-6.80307 1.28914 -0.382589)
0.0474846     (-6.80284 1.28907 -0.376769)
0.0475563     (-6.8027 1.28888 -0.370783)
0.0476279     (-6.80263 1.28858 -0.364673)
0.0476996     (-6.80263 1.28817 -0.358495)
0.0477712     (-6.80276 1.28765 -0.352318)
0.0478429     (-6.80299 1.28704 -0.346248)
0.0479145     (-6.80334 1.28632 -0.340359)
0.0479861     (-6.80378 1.2855 -0.334789)
0.0480578     (-6.80437 1.28464 -0.329055)
0.0481294     (-6.80517 1.28371 -0.323385)
0.048201      (-6.80609 1.28267 -0.317894)
0.0482726     (-6.8072 1.28161 -0.312473)
0.0483442     (-6.80849 1.28054 -0.307247)
0.0484158     (-6.80993 1.27942 -0.302388)
0.0484874     (-6.81152 1.27856 -0.297798)
0.048559      (-6.81324 1.27781 -0.293534)
0.0486306     (-6.81508 1.27715 -0.289708)
0.0487022     (-6.81699 1.27667 -0.28634)
0.0487738     (-6.81897 1.27635 -0.283432)
0.0488454     (-6.82097 1.27615 -0.281057)
0.048917      (-6.82299 1.27603 -0.279228)
0.0489886     (-6.82501 1.27607 -0.277961)
0.0490602     (-6.82701 1.27627 -0.27726)
0.0491318     (-6.82895 1.27659 -0.277104)