# Residuals   
# Time        	p             	Ux            	Uy            	Uz            	k             
0             	N/A           	N/A           	N/A           	N/A           	N/A           
