/*--------------------------------*- C++ -*----------------------------------*\
  =========                 |
  \\      /  F ield         | OpenFOAM: The Open Source CFD Toolbox
   \\    /   O peration     | Website:  https://openfoam.org
    \\  /    A nd           | Version:  13
     \\/     M anipulation  |
\*---------------------------------------------------------------------------*/
FoamFile
{
    format      ascii;
    class       volScalarField;
    location    "0.0999276";
    object      yPlus;
}
// * * * * * * * * * * * * * * * * * * * * * * * * * * * * * * * * * * * * * //

dimensions      [];

internalField   uniform 0;

boundaryField
{
    walls
    {
        type            calculated;
        value           uniform 0;
    }
    inlet
    {
        type            calculated;
        value           uniform 0;
    }
    outlet
    {
        type            calculated;
        value           uniform 0;
    }
    innerCylinder
    {
        type            calculated;
        value           nonuniform List<scalar> 
9658
(
8.88895
17.5422
23.337
23.7291
12.4964
10.7914
12.8872
14.0924
13.8484
10.8395
23.9355
50.8182
44.0912
43.2802
14.66
14.0632
8.55401
59.8275
50.3315
52.0382
42.2047
38.0626
13.6811
16.6825
16.6825
7.08807
56.5994
50.2827
15.6369
52.9134
58.3756
7.50072
19.7672
20.8248
13.9922
40.1032
42.5203
52.7611
51.0028
54.5597
5.75383
13.9554
14.7466
41.4731
44.0667
47.8348
11.2463
11.9468
13.7193
14.2859
13.1259
12.3034
12.8935
56.9459
9.32753
58.3266
52.4341
58.9338
53.1984
55.0266
51.6098
10.0508
42.335
11.9952
49.799
19.995
19.9498
19.6467
19.5037
51.2178
54.7165
50.317
58.8968
52.3896
59.9091
9.38285
57.089
8.63344
19.5842
19.8245
6.2139
16.5708
16.5708
7.51202
19.6159
42.0714
51.3033
56.5374
13.6973
55.8256
7.14409
6.35924
16.7444
16.7449
19.2871
6.39823
19.4584
13.6765
55.8123
13.6974
37.8567
51.6595
42.145
42.3592
18.74
42.4603
51.8792
16.6811
19.462
6.18696
17.3671
7.16837
54.4407
51.0524
58.4778
50.9756
43.8159
48.5218
52.988
19.5752
18.4619
17.8108
48.5723
43.7046
51.3891
58.6162
51.4114
23.7759
7.24563
17.2399
10.8034
19.8285
20.1038
20.3989
18.3797
19.4944
17.7152
19.9838
19.7872
20.3505
44.6898
50.7817
42.411
20.755
37.7611
25.5546
39.4342
55.2502
54.1097
9.53451
21.6501
44.0337
43.9553
54.2418
55.4422
10.3316
52.3992
44.1748
44.3027
21.8637
37.0251
43.8395
43.3169
52.2453
43.7534
19.1958
18.117
17.2389
18.2638
17.997
17.3592
18.3851
18.1887
10.2363
19.0841
17.9779
17.1086
12.8839
14.0403
19.9714
11.9901
14.2191
6.54802
7.94468
8.33275
42.2939
43.4064
55.9893
47.0718
49.0899
47.9188
46.8088
45.2308
45.6689
2.94509
30.7097
16.1681
15.3412
11.6598
16.0102
16.0112
10.9627
14.9251
26.0472
11.4882
33.6133
58.1818
62.1015
58.8936
47.171
51.9628
46.1783
44.4937
31.5821
46.2304
44.1193
43.9444
45.1595
19.6166
44.843
27.1092
13.6355
11.7988
12.669
17.7079
18.2671
11.3112
17.9298
16.6868
16.6876
12.609
17.2085
30.1043
9.86304
21.34
53.9759
49.1762
47.5385
43.7869
45.4113
44.2601
19.1836
24.9446
27.7433
54.0217
53.9956
55.3015
42.6805
61.6723
44.7637
8.90991
9.48907
9.22548
20.0592
19.4991
19.697
18.3507
44.1202
44.1343
45.3013
8.81921
48.8123
48.4121
56.6235
47.6827
56.1255
31.5713
42.0064
18.5192
14.1458
13.9081
17.5233
23.2399
23.376
23.2682
22.1252
22.1965
23.7466
35.4844
61.124
43.4853
11.852
32.8516
34.9195
61.5385
42.6249
44.7891
56.6105
53.4699
57.6441
62.2376
56.133
59.1817
54.2197
54.2631
55.5052
50.8204
28.6967
41.8647
52.4574
49.5882
50.2882
25.7354
38.2181
39.8434
43.5512
43.8045
43.9932
20.0731
20.0694
19.6934
44.993
42.6654
44.1982
17.3747
14.2816
20.2956
20.4603
20.8135
19.5043
19.9649
20.2057
15.2324
15.3439
19.4126
19.9276
19.5918
17.5336
19.3722
17.5725
48.9903
52.1673
49.8446
28.0006
50.5075
41.4606
51.8601
47.0068
45.8349
55.9718
62.2172
58.9982
53.3665
56.4047
57.4934
62.0675
57.9091
58.6975
32.7698
11.9019
34.7557
61.2612
35.3544
43.4304
11.5459
25.9925
33.456
19.456
17.6363
17.6766
16.373
15.7274
15.4536
15.5935
20.3164
20.2142
20.7117
19.8497
19.4319
20.1719
12.3771
18.0497
17.1432
17.9102
8.51988
10.5265
9.47025
15.1215
15.3398
16.1398
16.14
10.9689
17.8222
10.803
16.7921
8.91156
9.51862
9.23763
19.7505
19.0761
19.1224
44.6385
46.987
46.1199
9.35251
53.1283
46.5742
53.8156
48.9886
47.4421
14.6076
11.3673
18.9506
39.8366
47.275
29.9356
30.0336
9.81136
21.23
13.8517
16.457
12.9869
16.0519
15.3128
10.5224
10.0488
12.1324
16.8082
16.8082
11.2946
13.8453
12.6051
17.1489
19.1597
18.7862
18.7415
10.079
10.5526
12.1537
19.2807
19.0225
18.9119
1.33671
16.7223
13.8085
12.9835
15.3419
11.8144
13.6205
12.6842
16.2871
15.5976
39.7688
47.3331
29.9114
11.4102
14.7015
19.0865
44.8829
19.7897
27.1282
53.3298
8.28354
46.7444
47.2154
44.7216
46.1685
44.4148
43.9313
45.2776
38.4176
21.6082
44.5656
44.119
43.5167
43.8388
32.0407
44.4235
45.7433
10.9512
16.2866
10.7962
19.6197
18.8731
18.9296
8.52119
10.5146
9.46034
15.8627
15.8627
11.6713
10.9576
14.7308
16.8486
15.0949
3.50581
35.8947
13.9365
22.6981
6.41505
11.9764
31.6862
42.0415
18.4637
46.4983
50.1932
55.6076
58.6087
49.0529
57.7759
56.9098
48.2473
56.24
45.5169
46.5862
47.1529
47.6715
47.0838
48.3432
9.68248
48.9499
48.3311
19.8317
19.1185
19.4022
19.2174
18.5364
19.3359
18.6487
18.1452
18.9713
47.3242
46.721
48.4762
46.694
45.6101
47.2722
48.4613
47.2521
47.9138
58.3527
49.122
57.8325
49.5005
46.376
55.7789
43.4073
42.1539
56.1883
22.7015
6.32739
12.1234
35.8426
3.453
14.0363
7.88862
6.56662
8.45267
20.379
20.49
20.984
20.3245
20.5457
20.7498
20.5501
20.8141
20.993
19.0599
18.4448
19.1772
11.4468
19.0187
19.3059
18.0595
18.5166
18.8363
20.2021
20.4967
6.51766
20.2612
20.4006
20.8382
20.7137
20.4879
20.8757
45.3714
44.5813
45.133
45.1518
48.9571
9.22175
44.1586
44.0022
45.293
17.2343
31.4257
31.1726
17.7356
17.5805
26.4192
27.8396
15.014
15.163
26.1474
26.02
15.5814
18.2709
31.2467
7.80609
7.03072
27.8291
5.27123
31.2495
39.9992
34.6049
35.3948
54.6901
56.8771
56.1712
54.4258
55.6662
55.8701
57.8067
56.8978
56.9308
15.7903
45.0698
48.806
8.53339
44.6576
45.0963
45.1185
46.8852
45.0354
45.6549
13.2717
28.2055
15.4065
13.5428
26.3788
17.2777
17.8496
31.1128
30.0017
17.8642
17.6849
30.7849
30.6082
54.5973
55.8108
56.0422
54.9098
57.0592
56.3697
57.0595
57.981
57.1095
52.7576
50.2557
50.4878
47.3555
44.8162
47.931
47.7127
44.695
47.8609
22.5379
8.78835
7.96215
28.7651
9.07686
26.1087
37.456
39.3406
28.6109
46.407
44.0662
47.1387
52.5486
50.0293
50.1806
44.0018
47.3062
47.2899
19.7467
18.4776
13.7898
18.6193
18.0388
18.5944
17.8596
17.8514
18.4556
18.8789
17.945
18.5094
18.3969
18.0455
18.417
17.7046
17.8726
18.2303
19.0758
18.1202
18.7695
18.6463
18.1575
18.5907
17.8869
18.0761
18.4952
19.5866
18.3178
18.8366
18.417
17.8891
18.3921
17.6924
17.6861
18.2408
28.6334
17.4754
17.4738
16.865
16.865
13.5153
17.7607
13.4417
17.2263
17.2263
21.3436
13.51
19.9141
13.4771
13.8793
15.958
31.4204
32.5134
19.7567
18.8632
21.6017
22.0607
20.4306
12.1865
18.5499
21.0179
15.8577
15.7489
11.8948
12.1085
9.22569
8.37223
11.2515
22.932
29.7129
13.0352
30.7863
27.6737
14.0957
18.3245
14.1441
14.3598
13.9919
13.8464
4.77072
10.9749
11.6568
11.1535
25.6892
14.333
14.3318
10.0133
10.1336
8.8968
30.3792
30.3748
8.32077
50.1455
52.0582
50.9479
44.2995
44.5021
44.525
44.6497
33.8317
43.1409
14.1515
22.8155
13.6959
15.0587
15.0587
13.9721
15.1956
14.586
31.7389
15.8046
10.1995
15.923
15.6368
12.0967
9.76981
13.702
60.3718
60.8087
60.7754
47.7988
51.5761
49.7998
48.7373
54.5251
50.7677
42.4422
42.4009
42.5451
32.7951
40.3992
35.3384
13.6177
13.3006
13.2982
31.7981
17.2465
35.0779
34.9607
34.1818
35.9426
25.4134
26.7262
25.708
26.5395
19.742
20.6695
20.3075
20.0943
21.2185
20.9511
21.4115
20.7157
19.8156
20.621
19.4705
20.9327
13.7487
19.4111
16.6786
16.6797
13.8981
19.2475
11.4117
5.9187
9.31099
56.0589
54.0071
53.6461
48.4671
48.6634
47.1388
55.7636
60.2427
57.6897
8.56553
6.88441
7.08048
14.7505
20.3844
16.5022
16.5024
14.7901
16.393
16.3921
23.7747
23.9996
25.2859
23.0225
24.9116
31.7877
25.3811
30.5931
26.5094
23.8801
25.0731
24.8018
13.9804
15.9968
14.1848
14.1948
14.0469
44.6712
31.3699
42.9568
42.8605
42.8809
43.2027
53.7722
51.2794
51.4445
53.1176
49.1216
51.7179
48.2631
51.2297
44.3103
10.8801
8.71239
12.1649
10.4839
14
14.3384
13.7677
25.0783
14.0947
14.3448
44.675
26.5261
32.9364
45.4479
39.003
38.2504
10.3533
28.867
16.3913
6.20042
8.24408
11.1015
16.5467
16.5467
23.0546
26.4244
26.7468
4.78661
11.0827
13.7949
14.7492
14.7492
14.3905
15.6497
14.148
13.6876
13.7054
12.4142
13.5926
13.4232
12.6298
13.2407
13.4258
17.2342
17.2342
23.8926
11.6483
11.1564
16.3705
15.5967
27.5135
27.252
16.6055
51.5527
58.8232
54.2292
10.9702
13.7967
15.6098
60.2033
55.6178
57.5298
53.9402
52.9165
54.1302
60.7379
58.2704
60.0292
56.1646
56.2161
55.7989
20.8405
18.4314
26.6071
42.6181
42.522
42.6256
47.7479
48.1389
46.4106
30.8378
20.1397
19.8447
20.1358
27.2798
4.06923
19.0563
19.369
18.9219
55.8836
55.7286
55.3211
51.537
47.7497
49.8065
58.1801
60.7193
59.9415
52.822
53.8588
54.0387
60.8364
60.3302
60.6833
13.793
11.0192
15.6167
58.9797
51.5809
54.3029
9.84366
12.2258
13.8195
19.4263
16.8981
19.0075
27.7315
6.40289
19.7516
20.0678
20.0911
31.1509
30.2908
7.06465
6.93505
6.46853
28.3589
16.4277
16.4277
13.5945
19.3054
13.4577
18.5911
8.56338
6.94248
7.13091
44.0769
43.6801
45.1089
52.1928
49.377
50.0322
55.9605
53.9028
53.5357
13.523
13.2165
12.9626
53.0437
52.9185
49.8442
11.399
5.92172
9.2923
26.9055
17.2424
16.9777
26.7598
6.98258
7.10577
8.31042
16.8967
16.8967
13.8389
7.14254
13.9973
19.3673
21.1559
21.1404
21.7084
20.5692
23.1734
23.4283
23.8129
23.5811
24.844
31.8177
30.5951
25.3204
7.18739
7.04331
8.35354
11.5464
17.1082
16.8441
13.2929
13.6161
13.3004
18.1472
52.9123
52.9334
49.7198
13.221
13.5382
12.9933
40.293
32.6067
35.1245
52.4783
49.7817
50.3534
43.8719
44.4183
45.4333
42.6322
42.5388
42.7241
22.6295
18.9731
20.9019
42.685
42.7021
42.7567
54.3851
48.6409
50.6983
13.6855
16.6216
13.5492
7.06188
6.88629
6.42167
25.8262
16.0346
15.7374
27.6865
23.3426
23.4817
23.7444
23.864
21.2913
21.258
20.6941
21.8323
25.5654
26.8312
25.829
26.6679
11.8772
23.2122
16.8886
10.3257
5.74929
8.46864
48.2681
51.1524
44.3592
50.5428
52.5761
52.6338
59.9706
56.3756
59.2291
53.2058
49.0963
51.8816
43.8914
44.1185
44.24
46.538
46.9591
46.3018
54.1182
51.6468
51.9069
29.0557
27.8124
28.942
27.7631
38.5112
37.521
40.1062
35.9149
26.407
23.8308
24.665
25.0289
22.35
21.5453
22.1752
21.7986
24.6396
29.8706
29.2112
24.7405
23.721
23.947
25.2302
22.9747
24.7351
29.9674
29.0068
24.8492
22.3884
21.5736
22.21
21.8299
21.2981
21.0366
20.8023
21.4899
38.5663
37.463
40.1316
35.9418
29.1261
27.8961
29.0073
27.8604
35.123
35.0006
35.9889
34.2199
46.4528
47.0972
46.3119
44.0469
43.8669
44.2078
52.4685
50.5958
50.925
60.0023
56.5303
59.3422
53.0147
50.7528
53.1026
30.2424
30.2012
7.6462
10.457
5.77956
8.58609
23.1346
11.8285
16.8656
10.09
9.99663
8.87083
45.2874
45.2469
45.3536
48.4607
50.503
48.9361
42.8005
42.7672
43.1481
11.5232
11.4366
11.3881
10.3949
9.84866
19.9299
20.5596
20.264
20.2814
26.0866
32.7172
33.2166
25.7394
25.2235
30.5639
31.3169
24.9293
15.872
15.872
16.453
20.7421
22.5159
21.0079
21.9734
14.7588
20.2962
16.4735
16.4735
16.3393
16.3369
14.7818
20.791
22.5677
21.0634
22.0178
15.8512
15.8543
16.468
19.8488
20.6427
19.5013
20.9586
48.3505
50.2352
48.7304
44.9096
44.737
45.0824
44.2132
44.3329
44.4253
9.9286
11.4694
11.2258
11.4131
4.90676
11.4687
7.85478
17.1164
24.336
13.224
11.9509
28.853
25.4265
29.6011
32.6512
27.8928
15.7158
15.7158
28.462
30.1361
16.1255
17.439
17.439
23.16
4.73413
10.9228
25.4726
23.6202
11.8181
11.2395
12.7724
12.7405
28.1144
27.7924
12.0333
12.849
26.6245
27.6032
27.4528
31.3517
28.6413
30.0013
17.5363
28.6814
15.9083
15.6254
25.1383
23.9502
11.6297
11.1368
22.881
23.8319
10.5781
11.1139
21.5667
17.8567
30.0218
4.76031
11.2657
12.6787
11.5549
17.0637
17.0637
0.664203
27.3451
23.824
11.8224
11.1633
17.2715
17.2715
23.1947
14.5776
12.755
12.4943
12.6095
11.9938
12.6319
26.7645
27.0578
26.1521
27.1549
10.3918
11.1823
24.9759
23.8259
22.4801
23.4669
29.7174
26.485
8.3771
3.90502
6.45301
9.15259
5.4591
7.33359
5.48462
4.97634
4.03614
10.9873
47.9248
43.3589
37.264
49.894
11.2365
52.9181
54.2429
49.6079
48.6914
47.6249
49.3077
51.2587
48.2384
49.8929
47.8977
48.2469
48.9329
45.3521
46.7463
45.4238
44.9454
45.0259
44.7784
46.2862
8.76484
45.3333
26.0056
17.229
17.2287
16.3212
15.4275
28.0059
26.3878
19.8292
32.0471
10.8798
31.7867
20.5137
16.2435
15.6055
27.2811
12.9475
11.4371
12.6224
20.3078
10.7196
10.7196
13.4518
15.1548
14.8163
9.73263
11.1974
12.0483
12.3146
14.7674
17.8099
29.0552
20.1368
10.7712
16.028
15.047
31.6169
23.6672
22.129
59.6145
58.0846
59.6411
61.5782
61.5007
61.158
58.3847
60.2483
59.8992
46.0544
47.1203
47.7313
50.6626
51.9192
50.974
49.0111
47.135
49.3454
46.1424
44.4837
47.0194
41.0316
51.3107
51.4826
46.8037
45.5301
48.9694
43.0674
44.262
43.1613
43.0525
43.9361
43.0456
44.5377
44.2961
43.5234
26.5424
22.095
29.254
42.6016
40.5807
37.9057
24.5359
34.635
31.9306
13.5899
13.4071
13.3219
12.6977
12.0995
12.8128
13.0912
12.3737
12.9289
32.068
18.2809
11.2695
11.5783
18.3709
11.6235
11.6507
34.0569
32.2789
33.2724
32.9213
36.0422
38.163
37.0102
37.0559
34.872
34.1178
33.5421
35.6881
24.3927
23.8945
24.7647
23.4674
24.9953
25.6998
24.4326
26.213
23.9214
22.4536
22.9651
23.3683
19.2398
19.2524
19.5589
18.9907
19.5224
19.9514
20.066
19.4433
19.0636
18.8922
19.0338
18.8708
21.7453
22.2812
21.8863
22.2067
21.103
20.5765
21.1174
20.5695
21.6634
22.2124
22.1725
21.6849
18.5271
16.7891
18.1677
17.1383
20.1094
21.4185
21.1984
20.3493
18.8335
17.6879
17.4382
19.082
12.3611
11.7423
12.6076
17.9106
18.0363
17.9895
16.7405
16.7405
14.1758
17.833
14.0407
18.8399
12.1912
13.126
12.8635
17.8172
5.32265
17.8217
19.7997
26.9593
17.1074
7.81464
9.78161
8.76669
23.9515
13.4783
14.9016
54.9841
51.6309
52.6408
51.4578
49.3394
51.3329
49.396
8.60544
50.4202
46.4955
43.8995
45.6586
46.9761
44.5698
45.7892
44.2168
43.9443
44.8279
50.5372
44.5191
52.4493
61.4326
58.6686
58.6445
45.2127
52.9505
53.2386
8.9807
6.89687
7.09323
7.79033
9.17542
7.44012
7.39125
9.10952
7.3349
15.2478
16.5868
2.29652
16.6042
14.6896
19.642
16.1854
16.183
16.3395
16.3395
14.541
15.1954
16.4357
16.5572
15.0713
24.2844
27.2856
26.3976
24.5524
23.1444
22.4016
22.8718
17.282
23.3612
22.8465
23.309
23.002
24.5025
27.7243
24.1393
29.1634
21.6169
19.9557
21.4567
20.4056
21.889
21.6517
22.2175
20.9853
28.7399
29.1765
26.9114
8.94226
8.16412
26.721
25.8425
8.35132
29.9005
32.555
32.2735
30.4913
17.0284
26.4035
15.5978
12.8591
15.8636
15.3607
28.4613
26.8805
43.3933
44.7441
43.8515
43.4855
44.1882
43.6738
45.2074
44.5669
44.2611
52.8352
49.3693
50.6843
50.1877
48.3933
49.9073
48.8516
48.1619
49.3105
54.9039
56.656
54.27
47.7113
50.1074
50.2952
56.4167
53.2506
53.4292
40.4953
27.4312
36.2007
47.096
34.3758
39.6604
23.0124
26.2049
31.4053
14.2556
15.1667
25.1026
15.7985
15.7985
16.6408
15.5029
28.9681
25.8655
10.1957
21.0147
12.2723
23.4974
12.487
27.6393
18.3553
31.1977
17.4566
17.4566
22.8845
25.1641
23.6006
4.64596
10.9048
11.8412
11.1788
26.9376
23.5662
4.81855
11.1833
12.5708
11.4574
13.394
23.8509
22.7246
23.4893
11.6525
11.1627
10.4981
11.1736
14.6471
26.8495
12.41
12.5343
11.8109
12.5621
17.1766
17.1773
24.0664
11.8546
11.355
25.9773
24.4681
6.38661
17.4157
17.4157
28.6344
30.0652
17.2282
21.567
20.0886
18.7281
18.0358
22.0393
21.4911
20.5161
17.11
17.8522
22.0724
22.4899
20.9334
19.4651
18.3967
18.768
17.1266
28.3486
15.604
15.6033
27.015
32.2185
4.81523
11.4051
28.0658
24.9147
13.0171
11.841
25.6089
24.4065
10.5364
11.1612
23.2711
24.3284
15.9203
15.5678
27.3528
29.8842
28.5348
28.8951
21.4957
22.0171
20.3632
17.6301
17.6871
22.0077
20.3005
20.3419
19.6793
18.7835
22.1734
20.8144
21.448
18.1423
18.8502
17.6558
17.8761
31.1713
3.40809
31.3008
31.1425
12.5953
12.5759
26.3296
27.084
12.0722
12.7156
30.1033
17.9176
21.0263
21.5997
18.4803
18.6514
32.6561
44.2704
38.7889
47.3606
60.2011
57.7157
56.2767
41.4583
51.676
49.8064
11.7504
16.5539
16.4854
22.3436
34.7022
24.1429
24.6337
35.3621
24.8674
61.3038
58.4898
58.4725
50.3546
44.4889
52.2775
52.8365
45.2051
53.0808
55.2066
56.5759
55.2879
55.0243
52.969
54.3393
56.3994
56.9974
55.6846
61.8445
61.5792
61.1455
57.8398
57.1542
58.8919
58.8929
10.4738
59.996
55.1184
49.1003
53.1058
47.6713
32.0098
44.361
45.0916
36.9131
43.6622
26.5459
9.24172
29.9144
8.62352
29.7137
8.20535
40.2378
34.6584
34.6397
42.9902
43.2585
42.7932
43.0167
43.3245
42.8651
43.4161
43.0867
42.7896
46.4728
44.1199
45.1713
45.4367
42.5777
44.6994
43.327
43.5727
44.1038
31.0518
11.148
17.6674
17.7976
11.3864
20.1322
19.7511
20.254
20.376
19.6934
20.0695
20.622
19.8537
20.2828
26.5433
25.3152
15.3045
9.85492
15.1336
9.74374
18.4916
17.5409
16.1715
18.8963
19.1674
18.6862
18.3885
17.3367
8.49436
31.3793
47.0701
43.5351
54.7022
48.7134
52.5149
36.2656
44.6719
42.9474
50.5081
51.8524
50.935
45.931
46.8972
47.6677
48.7453
46.9189
49.224
57.6744
57.0153
58.751
61.8264
61.4649
61.048
58.719
9.83006
59.8462
54.8981
52.8646
54.2303
55.079
56.417
55.1807
56.2586
56.8595
55.5786
61.5593
61.3703
61.0238
59.4215
57.8474
59.4246
60.0508
58.1775
59.6977
22.2583
34.5817
24.058
11.7992
16.5994
16.5076
35.2074
24.5823
24.8013
60.3506
57.8744
56.3982
44.2141
38.6725
47.3439
51.739
41.3747
49.8304
10.8393
16.097
15.1442
17.911
28.9532
20.199
23.6495
31.4795
22.1494
19.0011
19.2076
18.7564
18.5963
17.6202
18.4954
17.6832
5.2948
18.2497
16.4118
26.9828
16.0323
8.4387
25.6912
15.325
9.97819
9.83839
20.3308
19.6144
20.0541
7.466
19.7107
20.1579
20.5308
19.8468
20.215
18.0274
31.4569
18.1388
11.5563
11.5808
11.0811
17.4684
11.2607
30.5416
17.6275
11.4894
11.3481
7.88306
6.65857
6.41726
9.11148
10.1574
8.53073
7.63845
9.79242
8.01966
16.4588
27.1684
15.8948
9.94995
10.2546
16.2978
16.2979
13.3028
17.4072
13.3516
18.4614
12.1505
10.774
12.0154
17.6947
17.9241
17.747
11.95
10.7301
11.9488
17.4457
16.6797
17.4216
8.99325
6.9427
7.14248
7.82987
9.20081
7.47833
7.42505
9.13038
7.37111
44.803
44.8557
45.3754
45.2608
47.5385
46.2175
45.2963
47.0765
46.0871
47.379
45.852
47.8187
52.6754
50.7826
50.3817
46.0833
48.5046
48.09
24.243
51.48
52.5048
51.3183
49.1808
51.2042
49.2631
9.54992
50.2979
7.17766
15.6082
13.0347
12.4683
11.0772
12.1601
17.0536
12.7809
12.7675
47.6879
36.4563
44.2857
49.9879
43.4492
46.5618
33.0611
37.5538
40.8034
19.6945
26.9026
16.987
7.76335
9.76393
8.74514
23.8872
13.3377
14.7576
14.6487
13.6306
14.3091
25.5695
10.9114
14.5156
16.0784
13.3377
13.4468
13.8824
15.7999
26.4572
15.6177
8.82864
11.101
9.80248
8.53235
10.7557
9.57614
11.6241
11.4819
10.6717
16.8117
16.814
14.2456
17.8737
14.1156
18.8636
12.3696
11.7288
12.6226
17.8718
17.9902
17.9957
13.1509
12.1815
12.8818
17.6861
6.45533
17.7391
21.8451
23.0946
22.3633
22.6187
20.6017
19.6579
20.0154
20.1981
21.3017
21.6242
22.0942
20.8638
23.252
24.5515
5.52746
24.2051
5.96552
26.1905
24.8191
5.71419
22.6803
22.1064
22.853
22.3198
21.4946
19.8259
20.2569
21.347
24.4267
27.7145
24.0384
29.1767
21.742
21.4387
20.8098
22.0355
8.57174
10.7854
9.61574
8.87402
11.122
9.83517
11.5081
11.6515
10.7067
11.1739
14.4725
15.5632
16.0041
9.96255
14.5631
13.6015
14.2402
25.9041
13.418
13.3228
13.838
15.2159
9.92721
9.84642
12.6984
12.1115
12.8184
13.5888
13.4053
13.3287
12.3951
13.0988
12.9429
16.1409
27.076
15.959
45.5548
36.3948
44.1025
50.0345
43.3107
46.4357
33.0069
37.3861
40.624
12.4947
5.70594
12.1843
13.4275
15.7293
13.1038
12.8901
17.1882
12.851
42.5844
40.4154
37.7088
26.5638
22.2258
29.2248
34.4891
24.6008
31.8304
52.9188
50.9797
50.6389
47.7816
46.1461
48.1464
48.6927
46.3204
48.3403
45.4961
47.7414
46.4826
45.0804
44.873
45.5562
47.1649
45.3084
46.2003
43.307
44.5246
43.3833
43.1086
43.9397
43.16
44.7394
44.3585
43.6879
29.8751
7.06651
31.2133
22.8489
5.15891
4.82909
41.8204
40.5555
34.3901
43.2427
43.6263
43.0483
43.0253
43.2304
42.8535
43.2515
43.338
42.8934
37.0589
42.2481
50.8533
46.0544
44.3826
46.9313
46.7404
45.1754
48.3797
12.1579
10.7581
12.0271
16.4321
13.3638
13.423
10.7171
11.9636
11.9605
7.88906
6.62784
6.37116
9.08616
10.1429
8.50469
7.60289
9.78048
7.99048
10.5137
13.4977
14.997
14.902
9.63961
12.9927
11.4418
12.6553
24.6573
12.0619
11.1967
12.3309
14.5904
9.65665
9.55414
16.174
10.4705
26.5306
15.6135
7.29884
26.2068
7.61001
24.8536
23.5165
25.2366
24.4403
7.83722
22.9382
22.3616
22.5438
23.1393
20.7476
19.7914
20.1467
20.3499
21.9912
23.2288
22.4936
22.7746
21.4642
21.8267
21.0387
22.2749
25.1868
25.9037
24.6747
25.4166
24.5565
24.0295
24.8948
23.6305
24.1241
22.6845
23.6177
23.162
6.83102
6.48465
10.6356
29.9197
28.5055
22.9081
10.3673
20.5161
15.6576
15.2681
19.1421
12.6395
5.24823
4.70108
6.49519
15.4774
7.58629
10.046
40.5855
27.5033
36.3153
47.0774
34.457
39.739
23.0197
26.2517
31.5022
49.0433
50.7645
52.1647
52.3893
51.9106
53.2515
54.1392
54.003
54.0611
10.3946
58.8765
59.7002
53.2516
54.4278
57.4566
58.6441
57.3639
59.1475
55.0904
56.9834
54.5713
47.9274
50.6601
50.6702
56.7165
53.5925
53.8281
44.4258
45.9666
44.787
45.2483
46.3725
45.2479
8.9014
46.4449
45.5167
46.318
48.361
47.0808
46.2609
47.3429
46.7344
48.5075
48.0106
47.5466
53.2517
49.8305
51.1858
50.5823
48.4997
50.3398
49.084
48.1825
49.6703
30.3733
31.2044
30.0811
31.6744
29.0524
27.189
27.5775
28.857
30.5784
32.4022
32.0916
30.6245
38.7513
39.3149
40.2103
38.0306
36.4192
31.6233
8.28803
33.9332
36.8668
34.542
36.4165
34.6322
5.95396
26.5395
25.6578
5.92044
28.6611
29.1279
26.8651
5.85659
29.8172
32.5021
30.4136
32.2143
22.573
22.5037
22.4835
22.5073
22.5034
22.1988
22.0162
22.6502
22.6612
22.6062
22.5334
22.7758
22.2169
20.8663
21.3699
21.8743
24.5923
27.9163
28.5665
24.5654
22.6024
22.4038
21.9023
22.9762
23.0954
22.3625
22.825
22.5766
24.2234
27.2176
26.3329
24.4812
23.3037
22.7832
22.949
23.242
24.6848
28.0039
28.6562
24.6494
22.3087
20.9607
21.9772
21.4564
22.6867
22.4765
23.0535
21.9819
22.5446
22.235
22.6939
22.0504
22.6189
22.5596
22.5277
22.5654
22.7099
22.6665
22.8265
22.5927
21.1837
20.6655
20.6565
21.1998
21.8184
22.3475
21.9585
22.274
21.7377
22.2816
21.7607
22.2403
36.4779
31.6704
33.9939
33.9137
38.8193
39.3809
40.2779
38.08
36.9369
34.5864
34.6891
36.4654
29.1353
27.3448
28.963
27.7005
30.4272
31.2533
30.1356
31.718
30.6329
32.4425
30.6903
32.1324
36.0898
38.2152
37.0522
37.0949
34.1045
32.3246
33.3166
32.9599
34.9211
34.1516
35.7249
33.5853
46.0417
48.0115
46.9933
46.2806
47.2666
46.8537
48.4573
48.0959
47.6799
45.3436
46.5077
45.3757
44.4702
45.9479
44.7742
46.5939
8.89179
45.6297
50.9038
47.8849
49.5259
48.9912
47.5896
49.2846
48.071
47.8059
48.7509
9.80112
58.661
59.6362
53.3844
54.5854
57.6274
58.5418
57.527
59.1953
52.3516
51.5793
53.4382
49.0273
50.9283
52.5171
53.9953
54.4378
54.4076
37.2216
49.9799
44.0726
36.7666
47.9493
43.3085
54.4081
53.1035
49.697
15.3957
19.1999
12.7901
5.16687
4.68573
6.58693
15.5931
7.72194
10.2042
29.8603
28.4495
22.8897
6.75965
6.48145
10.651
20.5244
10.4414
15.6948
9.0982
5.36079
7.28429
8.37735
3.91013
6.41932
5.04085
5.53142
3.92245
45.444
45.2223
45.3276
45.0816
44.5545
45.0454
45.1378
44.7519
45.0666
46.5535
45.9561
47.3483
50.1614
48.4367
49.1897
46.46
47.4359
47.8277
43.3833
44.7968
43.8429
43.3552
44.0963
43.6022
45.2236
44.53
44.2341
17.8727
20.9093
27.8195
11.0472
30.8372
20.8008
17.461
11.6184
25.4482
27.991
11.4588
11.5708
27.3771
14.1716
14.0637
27.7367
18.1322
26.9208
10.1665
9.69215
27.9109
19.148
15.1589
14.8387
17.934
25.4956
9.49443
9.60399
26.1169
17.6853
10.0987
23.4848
12.1728
12.3653
23.0262
9.7093
9.84389
22.3444
12.0509
22.7939
19.6954
20.0864
20.0961
19.6654
19.6653
19.9558
20.0604
19.4987
19.3733
19.0466
19.1449
19.3121
21.2463
19.5424
19.3623
21.2631
26.202
33.1552
33.3541
26.1205
21.2206
5.01206
19.2857
21.2044
21.4141
20.4185
21.6092
20.0397
25.5257
32.6935
32.0512
25.8321
21.2696
19.4677
5.35388
21.1882
14.7547
15.4794
14.8289
15.7499
14.9736
15.8178
15.8178
10.3242
10.3242
14.4101
14.7427
16.2207
15.9926
14.8873
20.628
21.5817
20.5273
21.7276
19.4007
18.0058
19.4794
18.0188
19.3692
17.8746
19.2649
17.9868
14.6826
19.5485
16.1392
16.1392
16.2762
0.75705
14.5501
15.2308
16.5533
15.2185
16.5733
15.1776
16.4069
15.0553
16.5269
19.4549
18.0581
19.5391
18.0669
20.6712
21.6152
21.7662
20.5682
19.4192
17.9193
18.0329
19.3132
14.9686
15.8983
15.8982
10.6975
2.94224
14.7638
15.496
14.8327
15.7699
14.7572
16.2474
14.9044
16.0168
20.1454
21.4508
21.2282
20.388
18.5684
16.8212
18.2064
17.1744
18.8768
17.7303
19.1286
17.4779
46.4585
45.8491
47.1883
49.8296
48.334
48.9163
46.3772
47.3995
47.6599
45.0112
44.6178
44.9878
45.1257
45.0449
45.1443
44.7662
45.0643
45.0143
45.4028
46.7965
45.4273
44.738
44.8851
44.654
46.3007
8.78683
45.3158
9.77761
22.7719
12.146
23.2593
11.9433
12.1454
9.54829
18.0271
10.1194
28.2539
19.0539
25.8608
17.8337
9.45782
26.4546
17.6162
11.5743
11.5809
27.4937
14.1403
27.2441
14.2067
13.9803
14.2197
11.4419
26.7555
14.0979
27.0455
14.0108
17.6771
17.9486
30.9688
21.1343
31.0667
20.5033
17.5875
17.5884
14.0252
20.9614
30.4621
20.8869
11.0066
29.3478
17.4066
12.1316
17.5069
17.5101
21.7106
14.7311
21.3678
14.7149
10.473
17.3243
11.4709
33.0812
23.0897
23.0047
22.7323
10.899
18.9243
18.9243
19.7332
17.068
23.357
18.8648
18.8638
18.7446
18.7446
17.1369
11.8912
11.8912
18.1731
11.0362
5.93301
12.449
11.9436
11.6495
10.8587
10.558
11.4853
12.9505
16.2705
16.0603
14.1446
14.1511
14.1482
13.9649
13.7948
13.7729
17.3899
16.0002
16.0002
21.7502
18.9859
19.9622
20.5835
25.8817
24.8142
24.9919
25.8768
24.6712
24.5703
24.3932
24.8511
22.544
22.1418
21.6615
22.9485
17.1856
17.0799
16.3418
18.0638
8.70734
44.7002
41.0465
43.5143
13.9123
16.3726
14.3376
14.502
13.9376
14.1432
22.4526
18.559
20.7418
19.8973
7.37252
30.8126
8.02654
7.48128
29.5194
29.5406
29.1915
29.9038
25.7843
26.1979
25.7901
26.2324
22.8279
23.2029
23.0036
23.0503
22.5237
22.6171
22.3713
22.6137
15.85
16.2827
15.6606
16.8657
17.604
17.604
18.5594
33.43
30.0339
32.5992
30.8412
38.0589
37.0095
37.0513
38.0066
30.6846
25.0598
25.3699
31.4474
38.5645
41.2275
39.1849
41.8909
35.5444
34.6075
38.5056
39.3377
5.92658
21.5996
22.5474
25.3127
17.1686
10.1732
11.5503
13.9237
14.1477
14.1649
43.196
37.6073
41.5432
7.68069
6.32303
8.61936
16.2961
11.0178
11.0178
21.27
21.995
21.6049
20.91
20.9733
21.1018
20.7288
21.315
21.7671
22.3066
22.6988
22.2012
27.8433
28.818
28.5881
27.7334
34.6881
34.2947
35.1758
33.8136
35.0562
36.032
35.8605
35.2386
21.0031
25.5944
22.0281
24.373
13.8661
13.9995
13.8006
17.3279
13.7639
14.6794
42.9636
37.3299
39.5156
44.1661
44.0146
44.0794
46.2347
43.396
40.8749
7.00873
6.81283
4.66494
13.0128
12.6574
14.8733
16.8406
16.6139
15.9022
17.6767
22.8595
22.7705
22.877
14.6499
23.9528
23.628
23.8761
23.7417
26.7112
26.4193
26.801
26.3714
29.1641
29.3473
29.5773
28.9899
27.3839
29.4353
28.7997
28.3826
24.8142
13.643
14.1486
13.8182
14.2742
14.0228
14.0371
12.8811
13.6036
13.4439
12.3937
12.9182
12.9143
13.4526
13.821
15.6767
8.90015
16.6375
16.8823
16.3275
17.5263
20.7121
21.5143
21.9255
20.3037
22.5085
23.7659
23.8619
22.4386
20.4874
22.7692
22.2511
21.0243
25.3382
13.8726
13.4075
15.5597
10.8712
17.426
11.6834
11.8671
31.8002
28.9431
30.969
11.1217
14.7217
14.5433
16.2761
12.0878
12.0764
11.607
11.5258
31.5085
20.3812
29.5971
10.5803
10.6969
12.9968
12.9968
19.5656
17.6127
17.8874
17.6213
18.5079
20.5415
22.8199
21.0749
22.3063
17.1773
23.6192
18.9326
18.9326
18.9611
18.9616
17.1727
21.9138
23.2376
23.5387
21.5389
22.5268
23.7754
22.4535
23.8731
18.0941
18.0941
18.5982
22.1678
23.6298
23.4494
22.036
20.7123
21.5173
20.3054
21.9289
19.3775
21.0621
20.5778
19.8562
16.6371
16.8873
16.3585
17.5248
12.7757
12.9998
15.0477
16.2604
10.5409
5.70571
15.3295
14.4226
14.9349
16.2978
6.25106
15.5509
14.4983
18.2624
18.1284
17.4651
19.3787
17.9006
17.5145
16.8478
19.1773
27.4278
29.4543
28.414
28.8438
25.5184
24.5008
25.7507
24.0859
14.4636
29.9853
29.979
29.1284
29.1092
29.3115
28.9402
29.5541
25.2135
24.7539
25.0388
24.8944
28.4215
28.9957
28.6633
28.7014
26.6603
26.3843
26.3203
26.7666
23.5836
22.5962
23.3085
22.9863
25.5814
25.9713
25.6088
25.9311
23.9117
23.5798
23.6948
23.8277
19.6221
17.8213
18.8742
18.5691
23.323
23.2929
23.1358
23.453
22.8248
22.7271
22.5616
22.8333
13.6007
13.6007
21.5601
22.4483
22.0468
22.1177
16.8101
16.6141
15.9003
17.6685
6.1774
10.0546
10.8696
11.0462
10.7393
17.1952
10.1402
11.4337
11.4582
9.70433
10.3283
16.4996
17.0439
16.6726
17.7677
12.7664
12.7664
18.7709
20.9999
25.6148
24.3963
22.0358
30.9697
30.5292
31.1558
30.1624
30.5857
29.0109
31.6674
27.7822
35.0693
36.034
35.242
35.8651
30.6249
29.9035
30.3045
30.1989
35.336
36.1238
36.1587
35.3269
34.6388
34.2429
33.7633
35.132
27.2077
26.6651
26.7361
27.0788
34.0435
33.34
32.5744
33.2068
27.7672
28.7505
28.5271
27.6632
23.6879
23.5195
23.3897
23.8077
26.8082
25.8968
25.9922
26.8119
21.6585
22.1937
22.5966
22.1027
6.54468
22.7506
6.63574
7.18913
21.2093
20.857
21.3504
21.6849
20.8855
20.6353
21.0124
21.23
19.1846
17.3221
18.0275
18.4561
21.2356
21.6485
21.9083
21.5466
21.2467
21.9655
21.7028
20.8909
20.26
19.074
18.6246
19.8431
16.2042
10.9248
10.9248
23.672
26.6572
27.4773
22.9455
16.6803
14.8053
14.8203
16.7826
23.724
21.661
22.606
25.3623
37.7211
36.9048
37.8954
36.7439
9.42323
27.9355
30.9052
28.2404
35.6215
34.6754
38.5498
39.3885
35.602
36.6329
37.2003
36.1189
36.5166
40.8274
37.3582
40.1548
38.5732
41.1765
41.8094
39.1223
32.6981
25.7993
26.152
33.2214
20.6497
20.3724
20.0238
20.3576
20.7811
20.2099
19.8513
20.4128
8.8612
37.2774
40.7858
40.1032
35.645
36.6833
37.2514
36.1705
38.0895
37.0129
38.0214
37.0699
25.8215
27.886
30.869
28.2013
37.7184
36.9062
36.7397
37.9017
33.4384
30.0409
30.854
32.5691
16.5729
14.8011
14.8072
16.7898
23.6536
26.6451
22.9296
27.4714
17.5583
17.5583
18.5412
10.4699
15.9873
10.0048
10.7787
10.7787
10.9676
10.6488
20.2773
19.1031
18.6523
19.8568
15.8491
16.2741
15.6062
16.8735
21.3194
21.7258
21.9829
21.6271
19.1825
17.325
18.4576
18.0336
22.5582
5.56541
22.6636
22.3874
21.3142
21.4445
21.7824
20.9572
6.56105
22.8003
5.95133
6.49403
22.8891
23.2605
23.1086
23.0622
26.9
25.9969
26.0814
26.8877
23.7427
23.5744
23.8608
23.4466
25.8316
26.2472
26.2775
25.8365
34.0838
33.3782
32.6077
33.2448
27.2514
26.7171
27.1341
26.7813
29.5585
29.5825
29.9442
29.2314
35.3469
36.1282
35.3334
36.1678
30.6674
29.9472
30.2436
30.3432