# Forces      
# CofR        : (0.000000e+00 0.000000e+00 0.000000e+00)
# Time        forces(pressure viscous)	moments(pressure viscous)
0             	((2.664535e-15 -6.039613e-14 -1.598721e-14) (0.000000e+00 0.000000e+00 0.000000e+00)) ((7.524419e-06 -2.505057e-05 -4.544243e-05) (0.000000e+00 0.000000e+00 0.000000e+00))
1e-05         	((1.205773e-03 1.398196e+02 4.679216e-02) (2.555275e-06 -5.966991e-03 -1.587591e-05)) ((-1.049907e-03 -4.102726e+00 5.988637e-03) (-7.078948e-08 -3.474855e-03 -5.667079e-07))
1.39009e-05   	((-1.029023e-01 -6.004725e+01 -1.946841e+00) (5.621882e-05 -3.354839e-02 -4.184368e-04)) ((-6.163402e-03 5.225082e+00 -1.871394e-01) (-1.327505e-06 -7.636836e-03 -1.184200e-05))
1.8582e-05    	((-2.769266e+00 -2.220498e+03 -1.768783e+01) (-1.331752e-02 -1.486511e+00 -1.983976e-02)) ((-1.014495e+00 1.144111e+02 8.876155e-01) (-4.353093e-04 2.833742e-02 -1.083844e-03))
1.93121e-05   	((-3.414358e+00 -2.832018e+04 -3.542531e+02) (-4.846954e-02 -7.670868e+00 2.352025e-02)) ((-1.366287e+01 1.317500e+03 4.642595e+01) (-5.723565e-03 7.773196e-02 1.976899e-02))
1.96426e-05   	((2.904045e+02 -3.497454e+04 2.296472e+03) (-1.227176e-01 -2.146742e+01 1.756561e+00)) ((-6.844786e+01 1.554865e+03 3.469435e+02) (-4.237105e-02 4.597415e-01 2.226047e-01))
1.97358e-05   	((3.671824e+02 -1.662197e+04 4.138739e+03) (4.146425e-02 -1.487360e+01 2.692501e+00)) ((-7.177993e+01 7.723048e+02 4.611184e+02) (-4.962699e-02 4.546457e-01 2.752711e-01))
1.98334e-05   	((1.703152e+02 -4.558442e+03 2.002735e+03) (-6.430123e-02 -1.033611e+01 2.779124e+00)) ((-3.372821e+01 2.520425e+02 1.688642e+02) (-3.241575e-02 4.855476e-01 1.498910e-01))
1.9888e-05    	((1.076239e+01 -1.156438e+03 2.596778e+02) (3.577474e-01 -9.079861e+00 2.743637e+00)) ((-6.105733e+00 4.760032e+01 1.550502e+01) (-2.552502e-02 5.190826e-01 1.059991e-01))
1.99536e-05   	((6.022957e+00 -1.092846e+03 1.621010e+02) (6.105794e-01 -8.532725e+00 3.103955e+00)) ((-2.982563e+00 3.175564e+01 3.000295e+01) (-2.990073e-02 5.481188e-01 1.414463e-01))
2.00323e-05   	((6.893376e+00 -1.000912e+03 1.815355e+02) (6.682070e-01 -7.206561e+00 2.818103e+00)) ((-3.375734e+00 2.898212e+01 3.538361e+01) (-2.563947e-02 5.070771e-01 1.185328e-01))
2.01267e-05   	((7.550287e+00 -8.375778e+02 1.698808e+02) (6.253307e-01 -5.708766e+00 2.307549e+00)) ((-3.187499e+00 2.515302e+01 3.177195e+01) (-1.800741e-02 4.430853e-01 7.103407e-02))
2.02401e-05   	((6.351348e+00 -6.764727e+02 1.385738e+02) (5.497526e-01 -4.498154e+00 1.901830e+00)) ((-2.609755e+00 2.068305e+01 2.543356e+01) (-1.225040e-02 3.861211e-01 3.596792e-02))
2.03761e-05   	((5.043707e+00 -5.516092e+02 1.088667e+02) (4.580911e-01 -3.554686e+00 1.579426e+00)) ((-2.057172e+00 1.698514e+01 1.978908e+01) (-8.223722e-03 3.351902e-01 1.291118e-02))
2.05392e-05   	((4.091461e+00 -4.579374e+02 8.682331e+01) (3.705169e-01 -2.824599e+00 1.320703e+00)) ((-1.636681e+00 1.416586e+01 1.569875e+01) (-5.503754e-03 2.900246e-01 -1.339135e-03))
2.07351e-05   	((3.396122e+00 -3.859677e+02 7.014653e+01) (3.013849e-01 -2.255973e+00 1.105483e+00)) ((-1.310761e+00 1.199771e+01 1.262139e+01) (-3.628142e-03 2.484118e-01 -9.806402e-03))
2.09592e-05   	((2.823242e+00 -3.301303e+02 5.704169e+01) (2.469716e-01 -1.816421e+00 9.314635e-01)) ((-1.056414e+00 1.029542e+01 1.026656e+01) (-2.300418e-03 2.121889e-01 -1.475180e-02))
2.12021e-05   	((2.394047e+00 -2.858424e+02 4.668991e+01) (2.064846e-01 -1.485397e+00 8.018195e-01)) ((-8.588764e-01 8.948271e+00 8.439083e+00) (-1.413438e-03 1.821323e-01 -1.733576e-02))
2.14663e-05   	((2.097021e+00 -2.529649e+02 3.906442e+01) (1.725429e-01 -1.230742e+00 6.963155e-01)) ((-7.082905e-01 7.936825e+00 7.062190e+00) (-7.848735e-04 1.567210e-01 -1.856518e-02))
2.17536e-05   	((1.796212e+00 -2.245680e+02 3.256152e+01) (1.434422e-01 -1.031220e+00 6.108625e-01)) ((-5.857076e-01 7.053743e+00 5.907085e+00) (-3.674437e-04 1.350754e-01 -1.871814e-02))
2.20667e-05   	((1.515901e+00 -1.997956e+02 2.677417e+01) (1.194554e-01 -8.746190e-01 5.413210e-01)) ((-4.788997e-01 6.274376e+00 4.871801e+00) (-8.159012e-05 1.164154e-01 -1.829214e-02))
2.24074e-05   	((1.303394e+00 -1.780967e+02 2.231845e+01) (9.946745e-02 -7.506995e-01 4.841265e-01)) ((-3.947639e-01 5.592338e+00 4.073097e+00) (1.116221e-04 1.002166e-01 -1.746196e-02))
2.27778e-05   	((1.091848e+00 -1.592201e+02 1.844675e+01) (8.161597e-02 -6.521358e-01 4.365561e-01)) ((-3.257753e-01 4.992757e+00 3.399131e+00) (2.300035e-04 8.616505e-02 -1.641597e-02))
2.31798e-05   	((9.487561e-01 -1.426704e+02 1.556411e+01) (6.551085e-02 -5.736489e-01 3.961212e-01)) ((-2.716229e-01 4.469075e+00 2.888159e+00) (3.017780e-04 7.384815e-02 -1.528392e-02))
2.36153e-05   	((8.096410e-01 -1.281981e+02 1.312381e+01) (5.197924e-02 -5.102811e-01 3.612220e-01)) ((-2.274902e-01 4.009285e+00 2.452836e+00) (3.433648e-04 6.312384e-02 -1.412945e-02))
2.40864e-05   	((7.069760e-01 -1.155344e+02 1.116590e+01) (4.081390e-02 -4.582501e-01 3.304141e-01)) ((-1.906794e-01 3.602562e+00 2.110504e+00) (3.655384e-04 5.370928e-02 -1.306849e-02))
2.45954e-05   	((6.264686e-01 -1.043675e+02 9.577459e+00) (3.136829e-02 -4.152031e-01 3.033896e-01)) ((-1.607329e-01 3.245237e+00 1.830354e+00) (3.715151e-04 4.544653e-02 -1.204280e-02))
2.51445e-05   	((5.284856e-01 -9.438033e+01 8.121278e+00) (2.378165e-02 -3.786406e-01 2.795237e-01)) ((-1.349129e-01 2.928003e+00 1.558664e+00) (3.678459e-04 3.826455e-02 -1.107365e-02))
2.5736e-05    	((4.511873e-01 -8.547411e+01 6.870406e+00) (1.771264e-02 -3.474305e-01 2.576762e-01)) ((-1.128406e-01 2.645299e+00 1.332906e+00) (3.583846e-04 3.194000e-02 -1.015671e-02))
2.63726e-05   	((3.888007e-01 -7.743513e+01 5.852009e+00) (1.304295e-02 -3.205967e-01 2.376798e-01)) ((-9.517550e-02 2.390340e+00 1.154244e+00) (3.496773e-04 2.634307e-02 -9.350826e-03))
2.70571e-05   	((3.372947e-01 -7.024097e+01 5.013361e+00) (9.516753e-03 -2.976201e-01 2.196667e-01)) ((-8.029954e-02 2.161388e+00 1.005264e+00) (3.382087e-04 2.140255e-02 -8.620722e-03))
2.77929e-05   	((2.928382e-01 -6.388886e+01 4.306326e+00) (6.960580e-03 -2.774133e-01 2.029131e-01)) ((-6.799263e-02 1.959833e+00 8.789167e-01) (3.251359e-04 1.702198e-02 -7.946746e-03))
2.85837e-05   	((2.573783e-01 -5.823453e+01 3.720638e+00) (5.357489e-03 -2.596077e-01 1.871038e-01)) ((-5.760417e-02 1.779149e+00 7.725228e-01) (3.111130e-04 1.312172e-02 -7.317437e-03))
2.94338e-05   	((2.207363e-01 -5.297449e+01 3.141026e+00) (4.065302e-03 -2.437621e-01 1.721599e-01)) ((-4.817093e-02 1.611421e+00 6.668385e-01) (2.950238e-04 9.637553e-03 -6.725157e-03))
3.03481e-05   	((1.886420e-01 -4.815647e+01 2.665924e+00) (3.266015e-03 -2.292281e-01 1.580136e-01)) ((-4.047359e-02 1.458674e+00 5.780188e-01) (2.790446e-04 6.523423e-03 -6.172905e-03))
3.13322e-05   	((1.603455e-01 -4.371816e+01 2.257228e+00) (2.796104e-03 -2.160573e-01 1.448833e-01)) ((-3.388110e-02 1.318221e+00 4.983619e-01) (2.627023e-04 3.758774e-03 -5.649971e-03))
3.23921e-05   	((1.361424e-01 -3.970111e+01 1.922284e+00) (2.654602e-03 -2.040301e-01 1.326604e-01)) ((-2.865523e-02 1.190788e+00 4.332533e-01) (2.463378e-04 1.294630e-03 -5.174513e-03))
3.35351e-05   	((1.130015e-01 -3.591009e+01 1.598819e+00) (2.830902e-03 -1.927170e-01 1.213231e-01)) ((-2.381130e-02 1.070381e+00 3.711744e-01) (2.306906e-04 -9.113081e-04 -4.734552e-03))
3.47689e-05   	((9.621780e-02 -3.249120e+01 1.350267e+00) (3.165854e-03 -1.823207e-01 1.109910e-01)) ((-1.986675e-02 9.626723e-01 3.217529e-01) (2.158244e-04 -2.883504e-03 -4.317621e-03))
3.61027e-05   	((8.139711e-02 -2.937916e+01 1.141985e+00) (3.590018e-03 -1.727063e-01 1.016645e-01)) ((-1.654067e-02 8.648992e-01 2.782556e-01) (2.018815e-04 -4.624565e-03 -3.946367e-03))
3.75473e-05   	((7.033343e-02 -2.649171e+01 9.700583e-01) (3.992109e-03 -1.635591e-01 9.316426e-02)) ((-1.376336e-02 7.746977e-01 2.415911e-01) (1.887529e-04 -6.162954e-03 -3.604221e-03))
3.91159e-05   	((5.899038e-02 -2.373243e+01 7.949500e-01) (4.385495e-03 -1.549383e-01 8.536293e-02)) ((-1.122205e-02 6.887632e-01 2.049596e-01) (1.760622e-04 -7.532151e-03 -3.279610e-03))
4.08138e-05   	((5.043374e-02 -2.116635e+01 6.603496e-01) (4.877259e-03 -1.468203e-01 7.823005e-02)) ((-9.062685e-03 6.089481e-01 1.780596e-01) (1.636659e-04 -8.743968e-03 -2.978753e-03))
4.26528e-05   	((4.242922e-02 -1.875470e+01 5.419023e-01) (5.260273e-03 -1.390681e-01 7.166097e-02)) ((-7.261598e-03 5.342879e-01 1.532692e-01) (1.522487e-04 -9.815616e-03 -2.705479e-03))
4.46491e-05   	((3.554127e-02 -1.651839e+01 4.472440e-01) (5.537950e-03 -1.317925e-01 6.562823e-02)) ((-5.793131e-03 4.651705e-01 1.318588e-01) (1.411448e-04 -1.075929e-02 -2.451304e-03))
4.68207e-05   	((2.957556e-02 -1.439405e+01 3.530220e-01) (5.719745e-03 -1.249036e-01 6.000154e-02)) ((-4.435015e-03 3.998770e-01 1.121376e-01) (1.303160e-04 -1.159857e-02 -2.212729e-03))
4.91877e-05   	((2.422734e-02 -1.245228e+01 2.874711e-01) (5.854203e-03 -1.182933e-01 5.471623e-02)) ((-3.604761e-03 3.403905e-01 9.704918e-02) (1.198777e-04 -1.234195e-02 -1.998326e-03))
5.17613e-05   	((2.171273e-02 -1.065160e+01 2.396506e-01) (6.011209e-03 -1.118595e-01 4.990745e-02)) ((-2.967186e-03 2.856355e-01 8.606359e-02) (1.102837e-04 -1.298536e-02 -1.808684e-03))
5.45677e-05   	((1.765664e-02 -8.949670e+00 1.881018e-01) (6.152676e-03 -1.057087e-01 4.552329e-02)) ((-2.427917e-03 2.342102e-01 7.448166e-02) (1.011499e-04 -1.354016e-02 -1.635426e-03))
5.76383e-05   	((1.423766e-02 -7.343913e+00 1.441947e-01) (6.218839e-03 -9.970227e-02 4.145680e-02)) ((-2.010832e-03 1.860124e-01 6.473790e-02) (9.285732e-05 -1.401968e-02 -1.477160e-03))
6.1006e-05    	((1.108911e-02 -5.847211e+00 9.935319e-02) (6.193688e-03 -9.383406e-02 3.777439e-02)) ((-1.555413e-03 1.415947e-01 5.585073e-02) (8.508204e-05 -1.442971e-02 -1.334023e-03))
6.47105e-05   	((9.687079e-03 -4.446469e+00 6.930333e-02) (6.131905e-03 -8.811716e-02 3.440978e-02)) ((-1.203386e-03 1.006411e-01 4.951882e-02) (7.809805e-05 -1.476702e-02 -1.212192e-03))
6.86483e-05   	((8.586503e-03 -3.166043e+00 3.916826e-02) (6.009264e-03 -8.267432e-02 3.144867e-02)) ((-9.226838e-04 6.376900e-02 4.397649e-02) (7.138116e-05 -1.502436e-02 -1.109967e-03))
7.26919e-05   	((7.772079e-03 -2.031945e+00 2.040130e-02) (5.844261e-03 -7.769496e-02 2.887103e-02)) ((-7.524681e-04 3.186555e-02 3.901926e-02) (6.585285e-05 -1.520914e-02 -1.020914e-03))
7.68424e-05   	((6.753261e-03 -1.025303e+00 3.910579e-03) (5.657074e-03 -7.318182e-02 2.661315e-02)) ((-5.951623e-04 3.836367e-03 3.459641e-02) (6.116492e-05 -1.533420e-02 -9.445412e-04))
8.11059e-05   	((5.677873e-03 -1.178419e-01 -1.255676e-02) (5.496252e-03 -6.907983e-02 2.464098e-02)) ((-4.764739e-04 -2.095655e-02 3.077029e-02) (5.694888e-05 -1.540455e-02 -8.761441e-04))
8.54897e-05   	((4.959150e-03 7.000848e-01 -2.487691e-02) (5.359536e-03 -6.528307e-02 2.294452e-02)) ((-3.739003e-04 -4.279050e-02 2.718564e-02) (5.349168e-05 -1.543176e-02 -8.104571e-04))
8.99977e-05   	((4.186106e-03 1.405697e+00 -3.295999e-02) (5.183435e-03 -6.175147e-02 2.150364e-02)) ((-2.954121e-04 -6.115720e-02 2.381048e-02) (5.063166e-05 -1.542217e-02 -7.555484e-04))
9.46318e-05   	((3.903110e-03 2.041565e+00 -4.079111e-02) (5.001865e-03 -5.847854e-02 2.026753e-02)) ((-2.092142e-04 -7.725594e-02 2.109504e-02) (4.814837e-05 -1.538398e-02 -7.042621e-04))
9.93926e-05   	((3.783734e-03 2.615680e+00 -4.571596e-02) (4.801776e-03 -5.543740e-02 1.920165e-02)) ((-1.237827e-04 -9.129722e-02 1.905887e-02) (4.587293e-05 -1.531787e-02 -6.575116e-04))
0.00010428    	((3.644602e-03 3.138280e+00 -4.853826e-02) (4.588659e-03 -5.260765e-02 1.826156e-02)) ((-5.221150e-05 -1.037367e-01 1.727496e-02) (4.388461e-05 -1.522322e-02 -6.151550e-04))
0.000109296   	((3.533048e-03 3.622276e+00 -5.503054e-02) (4.389576e-03 -4.997149e-02 1.742906e-02)) ((3.425279e-05 -1.148784e-01 1.522240e-02) (4.208892e-05 -1.510110e-02 -5.785939e-04))
0.000114442   	((3.781552e-03 4.063644e+00 -5.535629e-02) (4.209746e-03 -4.750811e-02 1.667799e-02)) ((9.209214e-05 -1.246107e-01 1.438136e-02) (4.033111e-05 -1.495125e-02 -5.465536e-04))
0.000119727   	((3.568875e-03 4.467492e+00 -5.789820e-02) (4.043620e-03 -4.519389e-02 1.596747e-02)) ((1.770845e-04 -1.331329e-01 1.335948e-02) (3.865279e-05 -1.477649e-02 -5.191619e-04))
0.000125164   	((3.109851e-03 4.841403e+00 -6.173763e-02) (3.891160e-03 -4.299460e-02 1.529537e-02)) ((2.370395e-04 -1.406797e-01 1.149840e-02) (3.722645e-05 -1.457754e-02 -4.948656e-04))
0.000130764   	((3.139828e-03 5.194797e+00 -6.397693e-02) (3.755681e-03 -4.089212e-02 1.465923e-02)) ((2.957374e-04 -1.475941e-01 1.020949e-02) (3.596174e-05 -1.435788e-02 -4.731788e-04))
0.000136537   	((2.834591e-03 5.524416e+00 -6.812121e-02) (3.635196e-03 -3.888362e-02 1.405954e-02)) ((4.026036e-04 -1.537401e-01 8.663670e-03) (3.483131e-05 -1.411732e-02 -4.542972e-04))
0.000142502   	((2.655468e-03 5.834575e+00 -7.302194e-02) (3.530551e-03 -3.697059e-02 1.350000e-02)) ((5.052399e-04 -1.591562e-01 6.949088e-03) (3.381350e-05 -1.385660e-02 -4.384623e-04))
0.000148676   	((2.827982e-03 6.124491e+00 -7.639542e-02) (3.437401e-03 -3.515246e-02 1.296606e-02)) ((5.997972e-04 -1.639266e-01 6.026076e-03) (3.288007e-05 -1.357619e-02 -4.234995e-04))
0.00015508    	((3.915519e-03 6.390171e+00 -7.523246e-02) (3.347539e-03 -3.343022e-02 1.244199e-02)) ((6.793169e-04 -1.678513e-01 6.065976e-03) (3.199842e-05 -1.327829e-02 -4.084092e-04))
0.000161728   	((4.071017e-03 6.649138e+00 -7.885626e-02) (3.264583e-03 -3.178736e-02 1.193944e-02)) ((7.708640e-04 -1.715957e-01 5.212996e-03) (3.116369e-05 -1.296377e-02 -3.930712e-04))
0.000168642   	((4.364403e-03 6.900246e+00 -8.015272e-02) (3.195594e-03 -3.022128e-02 1.147687e-02)) ((8.543158e-04 -1.749926e-01 4.575386e-03) (3.052857e-05 -1.263292e-02 -3.776911e-04))
0.000175795   	((4.783455e-03 7.133751e+00 -8.244005e-02) (3.135359e-03 -2.874852e-02 1.104661e-02)) ((9.814046e-04 -1.777873e-01 4.146507e-03) (2.998043e-05 -1.229009e-02 -3.636006e-04))
0.000183015   	((5.225110e-03 7.352635e+00 -8.539837e-02) (3.074528e-03 -2.741349e-02 1.064122e-02)) ((1.112788e-03 -1.802898e-01 3.437713e-03) (2.949298e-05 -1.194700e-02 -3.505073e-04))
0.000190118   	((5.498668e-03 7.541203e+00 -8.985266e-02) (3.007199e-03 -2.623867e-02 1.026380e-02)) ((1.242298e-03 -1.821395e-01 2.580097e-03) (2.911967e-05 -1.161361e-02 -3.373837e-04))
0.000197122   	((5.837744e-03 7.710738e+00 -9.181714e-02) (2.933146e-03 -2.519528e-02 9.922649e-03)) ((1.341504e-03 -1.836396e-01 1.988522e-03) (2.881675e-05 -1.129279e-02 -3.244451e-04))
0.000204044   	((6.129375e-03 7.863301e+00 -9.446666e-02) (2.858868e-03 -2.425549e-02 9.616998e-03)) ((1.450411e-03 -1.847954e-01 1.543675e-03) (2.854626e-05 -1.098176e-02 -3.119502e-04))
0.000210894   	((6.433166e-03 8.002664e+00 -9.568376e-02) (2.791622e-03 -2.340256e-02 9.339103e-03)) ((1.535504e-03 -1.857727e-01 1.241336e-03) (2.834918e-05 -1.068059e-02 -3.005169e-04))
0.000217685   	((6.901130e-03 8.129914e+00 -9.555386e-02) (2.731799e-03 -2.262689e-02 9.084657e-03)) ((1.610102e-03 -1.865234e-01 1.238236e-03) (2.819139e-05 -1.038896e-02 -2.900403e-04))
0.000224424   	((7.229866e-03 8.243471e+00 -9.642139e-02) (2.675061e-03 -2.191866e-02 8.846045e-03)) ((1.692483e-03 -1.870441e-01 1.048202e-03) (2.805502e-05 -1.010666e-02 -2.803691e-04))
0.00023112    	((7.499193e-03 8.340900e+00 -9.778995e-02) (2.618345e-03 -2.127406e-02 8.619261e-03)) ((1.768641e-03 -1.872766e-01 8.481781e-04) (2.787081e-05 -9.833239e-03 -2.712511e-04))
0.000237782   	((8.093971e-03 8.429609e+00 -9.759275e-02) (2.564228e-03 -2.068062e-02 8.405620e-03)) ((1.840729e-03 -1.874260e-01 9.378562e-04) (2.766313e-05 -9.568911e-03 -2.626545e-04))
0.000244415   	((8.638604e-03 8.511623e+00 -9.658255e-02) (2.511416e-03 -2.013195e-02 8.202620e-03)) ((1.905993e-03 -1.874926e-01 1.181087e-03) (2.744142e-05 -9.312921e-03 -2.547705e-04))
0.000251024   	((9.213539e-03 8.589117e+00 -9.630477e-02) (2.454934e-03 -1.962010e-02 8.006930e-03)) ((1.966551e-03 -1.875483e-01 1.465267e-03) (2.721329e-05 -9.065043e-03 -2.476489e-04))
0.000257615   	((9.694687e-03 8.658761e+00 -9.605704e-02) (2.397804e-03 -1.914433e-02 7.820371e-03)) ((2.025210e-03 -1.875113e-01 1.657202e-03) (2.695934e-05 -8.824758e-03 -2.411209e-04))
0.000264191   	((1.036450e-02 8.717577e+00 -9.493197e-02) (2.342779e-03 -1.870171e-02 7.643934e-03)) ((2.071795e-03 -1.872588e-01 2.003233e-03) (2.668339e-05 -8.591685e-03 -2.349921e-04))
0.000270757   	((1.101730e-02 8.774747e+00 -9.393804e-02) (2.291346e-03 -1.828542e-02 7.477407e-03)) ((2.124486e-03 -1.871117e-01 2.467794e-03) (2.640963e-05 -8.365660e-03 -2.289188e-04))
0.000277316   	((1.160909e-02 8.827370e+00 -9.246263e-02) (2.243811e-03 -1.788952e-02 7.318174e-03)) ((2.166434e-03 -1.869185e-01 2.972677e-03) (2.613653e-05 -8.146111e-03 -2.233320e-04))
0.000283869   	((1.229802e-02 8.874495e+00 -9.046803e-02) (2.199858e-03 -1.750977e-02 7.165791e-03)) ((2.205493e-03 -1.866858e-01 3.634783e-03) (2.586111e-05 -7.932881e-03 -2.180286e-04))
0.000290419   	((1.308694e-02 8.914324e+00 -8.804372e-02) (2.157920e-03 -1.714396e-02 7.020188e-03)) ((2.240413e-03 -1.863514e-01 4.243426e-03) (2.558057e-05 -7.725512e-03 -2.130634e-04))
0.000296967   	((1.363300e-02 8.951311e+00 -8.681241e-02) (2.116254e-03 -1.679241e-02 6.878974e-03)) ((2.270780e-03 -1.860066e-01 4.706257e-03) (2.528772e-05 -7.523512e-03 -2.083461e-04))
0.000303514   	((1.425280e-02 8.984874e+00 -8.499336e-02) (2.072467e-03 -1.645316e-02 6.739692e-03)) ((2.294268e-03 -1.856699e-01 5.284632e-03) (2.499881e-05 -7.326770e-03 -2.040076e-04))
0.000310036   	((1.474178e-02 9.017614e+00 -8.353139e-02) (2.028017e-03 -1.612894e-02 6.601189e-03)) ((2.316850e-03 -1.854133e-01 5.785599e-03) (2.469082e-05 -7.135753e-03 -1.998712e-04))
0.000316337   	((1.535034e-02 9.047386e+00 -8.188257e-02) (1.984421e-03 -1.583518e-02 6.467646e-03)) ((2.335461e-03 -1.851253e-01 6.221394e-03) (2.436990e-05 -6.955747e-03 -1.959715e-04))
0.000322358   	((1.575499e-02 9.074222e+00 -8.098225e-02) (1.942113e-03 -1.556949e-02 6.342157e-03)) ((2.354727e-03 -1.848758e-01 6.551223e-03) (2.405367e-05 -6.787770e-03 -1.923195e-04))
0.000328108   	((1.621168e-02 9.099331e+00 -7.982159e-02) (1.900993e-03 -1.532706e-02 6.224592e-03)) ((2.369623e-03 -1.846987e-01 6.918549e-03) (2.374107e-05 -6.630910e-03 -1.888603e-04))
0.000333637   	((1.667095e-02 9.119007e+00 -7.765462e-02) (1.860818e-03 -1.509979e-02 6.113797e-03)) ((2.377492e-03 -1.844649e-01 7.294011e-03) (2.343766e-05 -6.483413e-03 -1.855901e-04))
0.000338992   	((1.695280e-02 9.135665e+00 -7.626795e-02) (1.823181e-03 -1.488306e-02 6.008747e-03)) ((2.384990e-03 -1.842316e-01 7.573048e-03) (2.313963e-05 -6.343687e-03 -1.824790e-04))
0.000344216   	((1.723867e-02 9.150338e+00 -7.527780e-02) (1.789268e-03 -1.467431e-02 5.910037e-03)) ((2.394081e-03 -1.840292e-01 7.792968e-03) (2.284647e-05 -6.210246e-03 -1.794899e-04))
0.000349341   	((1.758677e-02 9.163540e+00 -7.371856e-02) (1.758558e-03 -1.447011e-02 5.817451e-03)) ((2.400949e-03 -1.838366e-01 8.061268e-03) (2.256661e-05 -6.082149e-03 -1.766490e-04))
0.000354394   	((1.792034e-02 9.171950e+00 -7.346624e-02) (1.730836e-03 -1.426956e-02 5.729801e-03)) ((2.414663e-03 -1.835650e-01 8.179337e-03) (2.229082e-05 -5.958472e-03 -1.739535e-04))
0.000359403   	((1.816671e-02 9.183062e+00 -7.243344e-02) (1.705133e-03 -1.407202e-02 5.645916e-03)) ((2.417187e-03 -1.834196e-01 8.358223e-03) (2.201347e-05 -5.838350e-03 -1.713288e-04))
0.000364403   	((1.833742e-02 9.190622e+00 -7.182075e-02) (1.681483e-03 -1.387506e-02 5.564173e-03)) ((2.424961e-03 -1.832189e-01 8.453507e-03) (2.173582e-05 -5.720911e-03 -1.687574e-04))
0.00036941    	((1.853340e-02 9.198148e+00 -7.000677e-02) (1.659441e-03 -1.367863e-02 5.483630e-03)) ((2.423636e-03 -1.830471e-01 8.640025e-03) (2.145109e-05 -5.605936e-03 -1.662309e-04))
0.000374429   	((1.876261e-02 9.206267e+00 -6.941420e-02) (1.639272e-03 -1.348399e-02 5.403457e-03)) ((2.432008e-03 -1.829114e-01 8.742481e-03) (2.116221e-05 -5.493327e-03 -1.637294e-04))
0.000379462   	((1.896695e-02 9.213872e+00 -6.857374e-02) (1.619845e-03 -1.329119e-02 5.324301e-03)) ((2.434046e-03 -1.827813e-01 8.885395e-03) (2.087508e-05 -5.382973e-03 -1.613312e-04))
0.000384507   	((1.914689e-02 9.219993e+00 -6.714297e-02) (1.600725e-03 -1.309972e-02 5.246032e-03)) ((2.426576e-03 -1.826377e-01 9.043357e-03) (2.059448e-05 -5.274903e-03 -1.590581e-04))
0.000389563   	((1.926803e-02 9.225048e+00 -6.591909e-02) (1.583034e-03 -1.290867e-02 5.168622e-03)) ((2.423154e-03 -1.824863e-01 9.136050e-03) (2.032449e-05 -5.169044e-03 -1.569934e-04))
0.000394626   	((1.946872e-02 9.229026e+00 -6.456820e-02) (1.566364e-03 -1.271948e-02 5.092714e-03)) ((2.417339e-03 -1.823301e-01 9.292027e-03) (2.005467e-05 -5.065435e-03 -1.550052e-04))
0.000399691   	((1.959885e-02 9.234163e+00 -6.382679e-02) (1.550007e-03 -1.253315e-02 5.018531e-03)) ((2.412418e-03 -1.822315e-01 9.378496e-03) (1.978984e-05 -4.964187e-03 -1.531063e-04))
0.000404751   	((1.974915e-02 9.238735e+00 -6.289224e-02) (1.534609e-03 -1.235042e-02 4.945577e-03)) ((2.406393e-03 -1.821460e-01 9.497425e-03) (1.953092e-05 -4.865354e-03 -1.512949e-04))
0.000409804   	((1.982516e-02 9.242364e+00 -6.164312e-02) (1.520113e-03 -1.217138e-02 4.873789e-03)) ((2.397555e-03 -1.820531e-01 9.575855e-03) (1.927108e-05 -4.769076e-03 -1.495016e-04))
0.000414848   	((1.988710e-02 9.243707e+00 -6.091401e-02) (1.506332e-03 -1.199590e-02 4.803781e-03)) ((2.390849e-03 -1.819273e-01 9.619542e-03) (1.901534e-05 -4.675538e-03 -1.477858e-04))
0.000419886   	((1.995094e-02 9.246587e+00 -6.032837e-02) (1.493125e-03 -1.182295e-02 4.734503e-03)) ((2.383632e-03 -1.818555e-01 9.654472e-03) (1.876017e-05 -4.584322e-03 -1.461040e-04))
0.000424925   	((2.002024e-02 9.247522e+00 -5.934053e-02) (1.480174e-03 -1.165152e-02 4.666214e-03)) ((2.373917e-03 -1.817573e-01 9.712928e-03) (1.850598e-05 -4.495192e-03 -1.444834e-04))
0.000429975   	((2.001378e-02 9.248644e+00 -5.917288e-02) (1.467515e-03 -1.148155e-02 4.598627e-03)) ((2.370824e-03 -1.816843e-01 9.611900e-03) (1.825221e-05 -4.408163e-03 -1.428896e-04))
0.00043504    	((2.004797e-02 9.248219e+00 -5.780257e-02) (1.455370e-03 -1.131279e-02 4.531259e-03)) ((2.357506e-03 -1.815826e-01 9.703822e-03) (1.799481e-05 -4.322941e-03 -1.412721e-04))
0.000440126   	((2.008101e-02 9.248512e+00 -5.642242e-02) (1.443049e-03 -1.114544e-02 4.464165e-03)) ((2.344188e-03 -1.815149e-01 9.809010e-03) (1.773915e-05 -4.239541e-03 -1.396278e-04))
0.000445237   	((2.012850e-02 9.248218e+00 -5.543907e-02) (1.430118e-03 -1.097983e-02 4.397230e-03)) ((2.332081e-03 -1.814497e-01 9.869623e-03) (1.748254e-05 -4.157808e-03 -1.379559e-04))
0.000450375   	((2.017629e-02 9.246858e+00 -5.405591e-02) (1.417326e-03 -1.081596e-02 4.330224e-03)) ((2.314717e-03 -1.813661e-01 9.965988e-03) (1.722101e-05 -4.077635e-03 -1.362486e-04))
0.000455545   	((2.018706e-02 9.246965e+00 -5.291549e-02) (1.404089e-03 -1.065335e-02 4.264117e-03)) ((2.299512e-03 -1.813334e-01 1.001181e-02) (1.695571e-05 -3.999065e-03 -1.345205e-04))
0.000460748   	((2.019418e-02 9.245446e+00 -5.157110e-02) (1.390450e-03 -1.049151e-02 4.197711e-03)) ((2.281301e-03 -1.812708e-01 1.009142e-02) (1.669411e-05 -3.921968e-03 -1.327950e-04))
0.000465988   	((2.021259e-02 9.244274e+00 -5.104819e-02) (1.376706e-03 -1.033063e-02 4.131629e-03)) ((2.267562e-03 -1.812334e-01 1.011925e-02) (1.643208e-05 -3.846244e-03 -1.310633e-04))
0.000471267   	((2.021056e-02 9.242210e+00 -4.961383e-02) (1.362650e-03 -1.017083e-02 4.066200e-03)) ((2.246970e-03 -1.811881e-01 1.022260e-02) (1.616735e-05 -3.771986e-03 -1.293204e-04))
0.000476589   	((2.026746e-02 9.238735e+00 -4.823236e-02) (1.348252e-03 -1.001122e-02 4.000188e-03)) ((2.227414e-03 -1.811140e-01 1.033715e-02) (1.590223e-05 -3.699113e-03 -1.275921e-04))
0.000481953   	((2.027346e-02 9.236082e+00 -4.711896e-02) (1.333199e-03 -9.852144e-03 3.934188e-03)) ((2.206539e-03 -1.810723e-01 1.042231e-02) (1.563903e-05 -3.627585e-03 -1.258968e-04))
0.000487363   	((2.029983e-02 9.233352e+00 -4.612826e-02) (1.317587e-03 -9.694006e-03 3.867932e-03)) ((2.187035e-03 -1.810371e-01 1.053414e-02) (1.537472e-05 -3.557365e-03 -1.241897e-04))
0.00049282    	((2.032613e-02 9.229729e+00 -4.494500e-02) (1.301299e-03 -9.536401e-03 3.802301e-03)) ((2.166713e-03 -1.809897e-01 1.065418e-02) (1.511362e-05 -3.488378e-03 -1.224952e-04))
0.000498324   	((2.042354e-02 9.225397e+00 -4.302492e-02) (1.284137e-03 -9.379436e-03 3.737250e-03)) ((2.142622e-03 -1.809310e-01 1.082032e-02) (1.485545e-05 -3.420652e-03 -1.208164e-04))
0.000503878   	((2.047343e-02 9.220557e+00 -4.128365e-02) (1.266569e-03 -9.223316e-03 3.672688e-03)) ((2.118311e-03 -1.808691e-01 1.097860e-02) (1.460000e-05 -3.354242e-03 -1.191860e-04))
0.000509482   	((2.047580e-02 9.215256e+00 -3.994039e-02) (1.248509e-03 -9.068347e-03 3.607793e-03)) ((2.094995e-03 -1.808059e-01 1.112111e-02) (1.434587e-05 -3.289299e-03 -1.175685e-04))
0.000515136   	((2.052442e-02 9.210254e+00 -3.854339e-02) (1.229823e-03 -8.914705e-03 3.543489e-03)) ((2.071350e-03 -1.807652e-01 1.124132e-02) (1.409081e-05 -3.225715e-03 -1.159503e-04))
0.00052084    	((2.051469e-02 9.204241e+00 -3.695543e-02) (1.210497e-03 -8.762166e-03 3.480270e-03)) ((2.044202e-03 -1.806977e-01 1.136275e-02) (1.383692e-05 -3.163359e-03 -1.143326e-04))
0.000526592   	((2.054015e-02 9.199378e+00 -3.587519e-02) (1.190716e-03 -8.610650e-03 3.417482e-03)) ((2.021586e-03 -1.806692e-01 1.146684e-02) (1.358345e-05 -3.102384e-03 -1.127029e-04))
0.000532391   	((2.057958e-02 9.194597e+00 -3.424267e-02) (1.170581e-03 -8.460268e-03 3.355740e-03)) ((1.993249e-03 -1.806491e-01 1.161566e-02) (1.333327e-05 -3.042661e-03 -1.110538e-04))
0.000538235   	((2.063285e-02 9.189514e+00 -3.218825e-02) (1.150130e-03 -8.310707e-03 3.294911e-03)) ((1.962540e-03 -1.806324e-01 1.179586e-02) (1.308461e-05 -2.984180e-03 -1.094108e-04))
0.000544122   	((2.066689e-02 9.182541e+00 -3.030006e-02) (1.129334e-03 -8.161455e-03 3.233826e-03)) ((1.932296e-03 -1.805781e-01 1.195382e-02) (1.283886e-05 -2.926907e-03 -1.077472e-04))
0.00055005    	((2.066367e-02 9.175417e+00 -2.913646e-02) (1.108370e-03 -8.013342e-03 3.173143e-03)) ((1.905347e-03 -1.805294e-01 1.209758e-02) (1.259511e-05 -2.870788e-03 -1.060924e-04))
0.000556015   	((2.073043e-02 9.169786e+00 -2.673327e-02) (1.087609e-03 -7.866532e-03 3.113276e-03)) ((1.870223e-03 -1.805241e-01 1.234873e-02) (1.235395e-05 -2.815849e-03 -1.044647e-04))
0.000562013   	((2.075553e-02 9.163125e+00 -2.532304e-02) (1.067090e-03 -7.720808e-03 3.053801e-03)) ((1.841208e-03 -1.804948e-01 1.250099e-02) (1.211649e-05 -2.762218e-03 -1.028383e-04))
0.000568041   	((2.080368e-02 9.155659e+00 -2.369737e-02) (1.046491e-03 -7.577182e-03 2.994770e-03)) ((1.812462e-03 -1.804546e-01 1.264833e-02) (1.188368e-05 -2.710082e-03 -1.012284e-04))
0.000574094   	((2.077521e-02 9.148108e+00 -2.213057e-02) (1.025824e-03 -7.434854e-03 2.935559e-03)) ((1.782345e-03 -1.804197e-01 1.279351e-02) (1.165644e-05 -2.659296e-03 -9.960574e-05))
0.000580168   	((2.081154e-02 9.141330e+00 -2.038321e-02) (1.004913e-03 -7.294159e-03 2.875750e-03)) ((1.751048e-03 -1.804103e-01 1.296294e-02) (1.143522e-05 -2.609740e-03 -9.796651e-05))
0.000586259   	((2.087653e-02 9.134253e+00 -1.851970e-02) (9.839890e-04 -7.155140e-03 2.816482e-03)) ((1.720059e-03 -1.803959e-01 1.311926e-02) (1.121948e-05 -2.561416e-03 -9.634181e-05))
0.000592365   	((2.091027e-02 9.127395e+00 -1.665335e-02) (9.632476e-04 -7.018028e-03 2.757819e-03)) ((1.686767e-03 -1.803927e-01 1.328584e-02) (1.100610e-05 -2.514317e-03 -9.472642e-05))
0.000598487   	((2.091761e-02 9.120337e+00 -1.466628e-02) (9.427377e-04 -6.882427e-03 2.699232e-03)) ((1.652715e-03 -1.803950e-01 1.345632e-02) (1.079511e-05 -2.468412e-03 -9.311556e-05))
0.000604626   	((2.095605e-02 9.112255e+00 -1.319627e-02) (9.224937e-04 -6.748054e-03 2.640577e-03)) ((1.622744e-03 -1.803839e-01 1.359658e-02) (1.058980e-05 -2.423667e-03 -9.150472e-05))
0.00061078    	((2.092370e-02 9.104843e+00 -1.157724e-02) (9.026139e-04 -6.614904e-03 2.582058e-03)) ((1.590513e-03 -1.803955e-01 1.374223e-02) (1.038824e-05 -2.380005e-03 -8.992359e-05))
0.000616951   	((2.093381e-02 9.096978e+00 -9.611679e-03) (8.830693e-04 -6.482818e-03 2.523789e-03)) ((1.557289e-03 -1.803989e-01 1.390700e-02) (1.018638e-05 -2.337325e-03 -8.830573e-05))
0.000623137   	((2.093737e-02 9.089815e+00 -8.057199e-03) (8.639770e-04 -6.352187e-03 2.466672e-03)) ((1.527246e-03 -1.804278e-01 1.402961e-02) (9.988194e-06 -2.295721e-03 -8.668271e-05))
0.000629341   	((2.095118e-02 9.082315e+00 -6.594528e-03) (8.453759e-04 -6.223418e-03 2.410248e-03)) ((1.497400e-03 -1.804519e-01 1.415116e-02) (9.790924e-06 -2.255241e-03 -8.504844e-05))
0.000635563   	((2.095529e-02 9.075360e+00 -4.984775e-03) (8.272758e-04 -6.096394e-03 2.354365e-03)) ((1.467791e-03 -1.805014e-01 1.426830e-02) (9.595070e-06 -2.215814e-03 -8.341015e-05))
0.000641801   	((2.101241e-02 9.068076e+00 -3.173501e-03) (8.094948e-04 -5.970633e-03 2.298735e-03)) ((1.437075e-03 -1.805411e-01 1.443311e-02) (9.399927e-06 -2.177401e-03 -8.177636e-05))
0.000648057   	((2.100289e-02 9.059205e+00 -2.074426e-03) (7.922169e-04 -5.846115e-03 2.243888e-03)) ((1.410088e-03 -1.805560e-01 1.453865e-02) (9.206905e-06 -2.140009e-03 -8.012181e-05))
0.000654327   	((2.095045e-02 9.050504e+00 -8.911800e-04) (7.753940e-04 -5.722974e-03 2.189766e-03)) ((1.381215e-03 -1.805758e-01 1.463830e-02) (9.015075e-06 -2.103605e-03 -7.845534e-05))
0.000660612   	((2.093079e-02 9.042979e+00 1.751466e-04) (7.586185e-04 -5.601238e-03 2.136370e-03)) ((1.355937e-03 -1.806282e-01 1.473450e-02) (8.824849e-06 -2.068149e-03 -7.678064e-05))
0.000666909   	((2.092365e-02 9.035339e+00 1.332668e-03) (7.420848e-04 -5.481125e-03 2.083735e-03)) ((1.331064e-03 -1.806811e-01 1.482050e-02) (8.638843e-06 -2.033617e-03 -7.511411e-05))
0.000673219   	((2.088974e-02 9.027808e+00 2.325425e-03) (7.256579e-04 -5.362572e-03 2.031367e-03)) ((1.306829e-03 -1.807441e-01 1.489184e-02) (8.454053e-06 -2.000047e-03 -7.345691e-05))