/*--------------------------------*- C++ -*----------------------------------*\
  =========                 |
  \\      /  F ield         | OpenFOAM: The Open Source CFD Toolbox
   \\    /   O peration     | Website:  https://openfoam.org
    \\  /    A nd           | Version:  13
     \\/     M anipulation  |
\*---------------------------------------------------------------------------*/
FoamFile
{
    format      ascii;
    class       volScalarField;
    location    "0";
    object      yPlus;
}
// * * * * * * * * * * * * * * * * * * * * * * * * * * * * * * * * * * * * * //

dimensions      [];

internalField   uniform 0;

boundaryField
{
    walls
    {
        type            calculated;
        value           uniform 0;
    }
    inlet
    {
        type            calculated;
        value           uniform 0;
    }
    outlet
    {
        type            calculated;
        value           uniform 0;
    }
    innerCylinder
    {
        type            calculated;
        value           uniform 0;
    }
    innerCylinder_slave
    {
        type            calculated;
        value           uniform 0;
    }
    propellerTip
    {
        type            calculated;
        value           nonuniform List<scalar> 
9073
(
1.09345
2.66018
3.13769
2.84888
2.69262
3.87898
2.29983
2.52474
2.78865
2.78877
2.14811
3.88626
2.36556
3.109
2.29308
3.11281
2.63021
4.62487
2.19224
2.19401
3.09147
3.2634
3.04851
1.32816
1.45191
3.12263
2.9428
1.39467
1.32516
1.37613
1.38372
2.67593
3.28812
2.67415
1.86699
3.26337
3.327
3.08778
2.51277
4.1088
2.60717
2.58784
5.68588
3.17159
2.67331
2.67607
1.33304
1.38333
0.81453
1.38292
3.06306
3.01369
1.33426
1.41067
1.30885
1.30885
3.23216
2.49439
4.40415
2.60675
2.58859
5.64266
1.8986
1.8986
3.27475
3.00426
3.29699
3.12195
3.07567
3.02667
3.1075
3.21372
2.00808
1.8882
3.4437
2.59256
2.62184
2.62319
3.49178
2.59257
2.62344
2.62214
3.44369
2.59256
2.62325
2.6217
1.894
2.19649
3.15547
3.22461
3.10324
3.01403
4.7168
3.26333
3.23299
2.67363
2.67632
3.30869
1.98182
4.89591
5.302
2.19354
2.7296
3.22818
5.29441
2.09754
2.09754
3.97355
3.19253
2.38516
1.83865
1.83865
1.20793
1.7865
2.49977
0.933462
2.32607
2.38692
2.39962
2.50134
0.930855
2.34573
2.43543
3.12515
2.97469
2.92079
1.74325
1.18097
2.47334
2.09784
2.09784
3.974
3.19303
2.38543
1.83871
1.83871
4.87667
4.11697
1.50144
4.87987
4.11801
1.50141
3.16876
2.43504
3.09683
2.9663
2.91099
2.67441
3.30258
2.67644
3.32377
3.22268
3.10911
1.48543
2.85036
3.46045
1.1745
1.16012
1.16012
3.20152
1.92584
1.92584
1.35786
1.37022
2.17343
1.37168
1.04854
2.49748
1.38634
1.09839
3.28277
2.68993
1.86386
5.01933
5.86312
3.85374
4.73129
4.55509
2.60326
2.60326
2.09536
5.25474
4.53267
4.59313
6.16196
7.5966
2.73312
2.66886
2.86045
4.6865
2.94391
3.46326
2.13658
3.57373
1.92532
2.25652
2.96172
4.69761
2.21768
2.55044
3.85671
2.87848
2.66018
2.66018
1.13426
2.86312
2.56109
4.84904
6.5242
2.53556
6.59982
3.22206
3.10908
1.4841
6.66028
2.85259
4.65145
4.53042
4.59546
6.15862
2.74338
2.69538
5.00758
5.85692
3.93201
4.69964
4.46781
2.41587
2.09377
5.6584
1.08827
1.00153
3.42812
2.59357
1.87218
1.36934
1.37315
2.21196
1.38436
1.0298
2.77785
1.38345
3.14374
1.19645
1.21092
2.79689
6.65958
6.07929
2.63792
6.65012
2.14958
2.54201
3.86349
2.94388
1.15468
2.85267
2.13636
4.28542
1.92354
2.25621
2.97635
4.54077
3.46898
2.95791
2.06274
1.7123
3.14806
2.48253
3.13019
2.48507
3.40936
3.29088
2.16484
3.47104
2.95873
1.20504
2.39474
1.20485
2.39435
2.16542
3.41235
3.29711
2.08793
2.59145
2.59257
2.62224
2.62349
3.50615
2.89975
1.66606
2.58695
2.20232
2.52475
1.2595
1.42886
3.29432
1.61955
1.4707
3.12829
1.45216
1.48275
2.60453
2.59869
2.60026
2.60106
2.35637
2.20423
2.52609
1.25848
1.43263
2.3102
3.0656
3.2197
2.83171
1.6153
1.5939
3.0841
3.23513
1.46953
1.44522
2.60448
2.59869
2.60105
2.60023
2.33137
1.41003
3.87386
0.801774
3.57253
1.53413
3.17172
1.51591
1.58552
3.06894
1.24965
3.0744
1.24671
2.67069
1.96379
2.61329
4.95522
1.52713
1.59207
2.32692
2.72744
3.87685
0.793469
3.57281
1.53439
0.962355
1.76395
0.96242
1.76355
2.50788
1.15801
2.62528
2.67139
1.96337
2.71806
4.92078
3.17284
1.31114
1.59063
3.03921
0.782029
3.4439
2.79317
3.11438
1.5829
1.76843
4.21344
4.98085
4.60746
3.72924
2.29565
3.15836
4.85031
1.33183
4.52898
6.34291
4.54872
4.56814
4.55232
1.2158
3.39934
2.78458
0.73434
3.69195
1.89117
1.316
1.316
1.3583
3.22238
3.12937
1.72913
1.3628
2.10586
1.77712
1.37291
1.58761
0.821851
1.7899
1.38389
1.79855
2.61861
4.21467
1.49911
5.20607
0.898499
4.35444
4.72523
2.29888
3.9814
4.05366
2.11334
1.9313
2.9703
1.19024
2.8584
4.68892
1.31858
1.55217
3.35912
2.97773
1.04421
4.5746
3.32836
2.68632
2.85976
1.34308
3.45883
2.76843
0.731693
1.80067
1.55103
1.21216
2.4217
1.24621
7.46958
4.53094
6.34254
4.54932
4.56817
4.55244
4.55008
4.55212
4.56809
4.55361
3.13769
3.20154
1.08976
1.57448
0.965825
3.11855
3.1543
5.15554
6.28226
3.26026
1.6154
3.81114
0.87775
1.48114
3.19712
8.38394
3.13412
3.13412
3.47695
3.28285
4.07545
0.964071
2.44231
3.64162
3.25968
1.63036
2.57071
6.34379
1.29884
1.54818
3.04333
3.45409
0.792492
4.7601
5.07205
5.61047
4.15726
2.7969
3.11485
1.58344
1.7741
1.62996
2.96451
2.27915
4.45356
1.61559
2.66143
2.00781
1.45243
2.68368
2.85782
2.97054
1.18496
2.85871
4.69044
7.60562
1.31519
1.55682
4.37114
4.76845
2.30157
4.01363
4.0446
2.11896
1.94406
2.60599
4.31242
0.7735
1.32299
5.09124
0.890541
1.79616
1.36231
1.76858
1.37661
1.70032
1.3072
1.56732
1.8062
1.38628
1.80453
3.22216
3.32822
1.89492
1.29983
1.29983
1.80641
1.36033
3.98094
1.63098
6.51313
3.33654
1.61467
3.80095
3.1586
8.76131
3.12993
3.12993
3.26869
1.39079
1.48089
3.30764
4.07938
0.96464
2.24963
2.24963
3.67571
3.27866
1.63066
2.61738
6.56576
1.37527
2.592
3.47355
1.58366
2.92405
1.74098
1.6692
1.67419
5.0992
3.6281
3.6281
4.54995
4.55162
2.36304
4.56803
4.5536
2.84888
3.21768
1.57068
0.970865
2.6637
2.81876
2.69262
2.69262
2.50696
4.98301
1.80026
1.58104
1.58104
1.16768
2.31073
2.33674
1.34503
7.2734
2.82376
2.78868
3.18309
3.20023
2.737
2.7347
2.60579
2.59537
2.59551
2.59918
2.67834
2.59772
2.60206
2.68049
2.59799
2.6022
2.74048
2.74211
2.60707
2.59557
2.59542
2.59975
2.68338
2.59807
2.60302
2.68194
2.59781
2.60292
2.52801
1.74445
1.43796
1.63433
2.73711
2.73449
2.60578
2.59552
2.59535
2.59917
2.6806
2.59801
2.6022
2.67816
2.59769
2.60203
3.18225
3.19317
2.86201
2.83954
2.55147
1.75021
1.51479
1.64059
1.54533
3.75431
4.97855
2.53335
1.54549
2.99626
4.47445
3.07374
3.89141
2.21552
2.44281
2.68029
2.90281
3.87898
1.21765
2.12227
5.3576
3.37829
2.49923
3.23508
3.25027
2.96501
4.43791
2.64346
1.6371
2.85305
4.6197
1.4446
1.97741
3.35933
2.98192
4.55045
4.59662
4.691
2.86377
2.12202
5.40662
3.40029
2.50497
3.47343
2.88513
1.57467
2.61048
2.64048
2.60332
2.71351
2.62277
2.67317
2.60881
2.60166
2.70841
2.91406
4.59175
5.78498
1.52251
3.77285
4.79835
2.47757
1.63042
3.1798
1.67254
4.29322
3.33907
1.37053
4.1368
2.40933
2.1892
3.24497
3.23904
2.62196
2.67013
2.60864
2.6016
2.61042
2.64044
2.60331
2.71339
3.93348
2.70837
2.91388
4.59188
5.78498
4.11963
2.40365
5.97977
2.59444
1.22008
4.2855
3.07508
6.42184
2.25498
7.02275
1.97082
1.97082
2.36099
1.60587
3.37507
2.02533
1.78751
3.16824
0.897577
2.10043
1.90693
0.701653
2.50438
1.21369
1.92661
0.941387
1.88236
2.59443
1.60237
3.09785
1.79749
2.50011
2.33007
3.84448
2.53939
2.30855
3.62502
2.6836
2.11079
1.91943
0.70224
2.51166
1.20193
1.92409
0.882933
0.93899
1.88399
2.59301
1.60322
3.09022
1.79309
2.29623
2.99519
2.63197
1.22045
2.91524
2.72131
3.71155
2.08073
1.93829
7.09002
1.77393
1.41079
2.95308
2.1488
1.90792
2.94283
1.70426
1.84362
2.47427
1.64104
1.78868
3.37444
3.16817
1.17747
1.87709
2.39296
2.26964
1.29906
1.38411
5.97974
2.59492
4.28521
3.07547
6.42178
2.25516
7.0227
1.97091
1.97091
1.40848
2.2665
2.26035
1.87686
1.38702
2.30522
2.99971
2.62609
1.21863
2.98485
2.73771
3.6894
2.07981
1.93469
1.71464
1.38144
2.95354
7.04635
2.11355
2.9358
1.899
1.70008
1.83966
4.56583
2.86072
4.67352
3.30114
2.97828
3.34171
4.55034
4.5975
4.69167
2.86402
3.30237
2.98249
3.34175
2.48509
3.65952
0.916618
2.82201
2.92291
7.23762
6.75913
2.41202
3.23142
2.52652
2.55429
3.4317
1.47317
3.29346
1.56226
5.72631
6.1239
6.34754
1.59734
4.61253
4.6074
4.24776
1.27277
2.84326
6.12712
0.93842
2.16192
1.24047
1.24047
3.53753
1.27977
1.27977
2.25941
1.83422
1.79322
1.36546
1.72704
1.69886
1.78912
1.3778
2.27264
4.61494
1.14703
2.07812
4.75413
1.72993
2.02345
1.96752
1.792
3.59263
1.71555
1.3217
1.75065
3.97883
2.13834
1.75241
2.03744
1.97946
3.39185
2.20334
4.25582
1.78639
1.38813
1.77419
4.14294
2.15388
3.42167
2.39949
1.60484
1.60484
1.90254
5.09807
4.15598
2.44979
2.93397
2.21095
2.20711
3.72928
4.2752
0.985991
6.08912
3.42454
1.07621
2.01731
1.76468
2.15665
4.98841
5.22915
4.31513
3.87759
2.31137
2.444
4.37209
3.75457
2.5429
4.61621
2.89118
4.57614
3.99429
2.52173
2.52173
4.09809
3.74932
2.17122
2.24299
5.90589
2.35921
3.71277
4.92742
5.62621
3.28378
2.10418
6.88476
6.70331
3.18568
3.70633
3.0614
2.74817
3.17909
3.31781
5.67469
3.11001
1.40597
6.39458
0.994192
1.5783
1.85648
2.04792
1.90767
2.75969
1.42853
1.40971
1.64976
2.72229
1.80815
1.99054
2.32827
2.17336
2.77545
2.00341
1.39031
3.10781
2.21158
6.16191
3.54642
1.02419
0.760706
3.4392
1.82044
4.58114
4.58663
4.24299
3.71954
1.27252
2.80227
2.5617
2.78865
2.28085
3.95609
3.23548
1.91897
4.79578
4.69568
3.42693
2.11932
2.70672
1.06014
3.72201
2.38579
5.82342
6.6372
5.79136
1.73263
3.379
3.06968
5.86921
3.05426
1.36028
4.30927
2.40541
6.15042
4.53894
4.495
5.48286
3.10228
2.9532
3.58806
7.36959
0.92817
1.49064
2.70364
2.59373
2.34636
2.93645
2.08824
2.08824
1.54761
3.43023
7.28532
2.53834
2.47979
3.65739
0.917943
2.81715
7.19743
6.5951
2.92091
2.4109
3.23064
2.56315
2.52386
3.42061
1.47292
3.30481
1.56208
5.22689
5.44912
6.04096
1.59894
1.40894
2.74333
3.15716
3.31687
5.67836
6.91788
6.73721
3.18475
3.82995
3.07931
0.986259
6.08859
1.71432
3.42804
1.76591
2.15093
5.22384
4.98147
4.28428
3.85345
2.42071
4.38441
3.55894
2.55818
4.59753
2.93116
4.54183
3.97644
2.32246
4.09375
3.79371
2.14763
2.42547
2.10247
1.68653
4.76006
3.85412
2.43593
0.942037
2.669
1.50891
3.67076
2.23407
2.84878
4.21177
1.80331
1.36929
1.88233
1.90163
1.77895
1.37596
4.60122
1.81807
4.50628
1.70996
1.82645
1.93885
1.93885
1.81526
3.51651
1.73956
1.36881
3.64858
1.64319
1.70025
1.48797
1.96305
3.5796
1.83631
1.79782
1.38989
1.78365
4.3153
3.85153
2.15179
3.31385
2.19559
1.24117
1.24117
3.20846
1.28442
3.10821
2.95883
3.58107
7.04384
0.969608
1.80552
1.52531
2.75715
2.60847
2.38326
2.94722
2.63796
3.68319
7.06172
1.54717
0.837771
2.62903
6.50457
2.88202
3.11814
3.14498
3.87966
1.72936
5.08381
2.75526
2.75526
2.53298
2.78877
2.28163
3.17892
3.21043
4.6958
4.82301
3.43747
2.17386
2.69684
3.64528
2.40527
5.77155
6.53574
5.77988
3.39992
1.73769
5.95796
3.06253
3.01963
3.01963
1.85141
2.04722
1.9047
2.73467
1.42851
1.75303
1.75303
3.2014
1.98883
1.25725
2.3304
2.17035
2.77447
3.10418
2.1999
5.6606
3.54466
1.02147
0.760642
3.43335
2.24029
3.05122
3.29648
1.96169
3.72217
3.34707
2.52858
1.96983
3.70699
2.52064
3.32471
3.02696
2.80625
3.29385
3.12132
4.28846
3.6909
3.03334
2.81222
2.2145
2.52576
1.99572
2.60263
1.57065
1.56676
2.5987
2.60038
2.60108
2.60524
1.56615
1.53889
2.5987
2.60109
2.60034
2.60525
2.60253
2.28557
1.8896
2.06687
1.82756
1.58695
1.57743
1.65878
2.04999
1.83365
5.01645
3.15979
0.901558
1.67414
2.98816
1.28205
1.28205
1.82618
1.01478
1.98627
1.97455
2.20258
3.59896
5.93883
3.57097
3.78446
2.68751
2.86155
6.07116
3.80667
3.69491
5.05449
3.2976
5.01736
3.15985
5.05145
1.98042
0.916338
1.53924
0.928997
2.50955
1.54041
3.57933
1.7609
1.96661
2.44337
3.18301
5.99557
3.76076
3.614
5.95641
3.57096
3.79276
2.68768
2.86188
1.98635
1.97449
3.60064
1.82663
1.01339
2.13468
2.86448
1.45349
1.96512
1.03895
2.44486
3.1697
0.908454
1.97818
1.53885
0.929812
2.51281
2.80895
5.03831
1.74393
3.02885
3.03143
3.05269
3.05139
3.02893
3.03133
1.72911
5.05751
3.33458
5.61769
1.33014
2.74083
2.21416
2.18072
5.95913
3.6122
2.68405
2.85865
6.08224
3.81753
3.70191
2.86214
2.68887
5.63929
2.8305
1.72351
1.33558
2.47491
3.91877
4.18165
2.69635
1.53252
3.31106
1.34497
0.869541
1.61413
2.33193
1.68391
2.32497
0.868453
2.6936
1.52432
3.30152
1.86996
1.61407
0.957467
1.96169
3.64535
3.76223
2.45905
3.11812
1.00878
1.00167
2.21411
3.64543
3.76213
2.17536
2.01365
4.13911
1.91833
3.95851
4.18596
2.86027
2.68654
6.081
3.70482
3.82536
2.86235
2.68898
6.08998
3.71327
3.83637
2.0132
4.11609
1.91773
1.80055
2.04005
2.04005
5.36886
5.05287
2.53709
2.53709
2.50855
2.30587
5.23427
5.71405
4.83893
5.03954
2.38052
5.93884
1.93978
2.66362
5.18244
3.7495
3.09002
3.67448
3.22857
1.91567
1.49996
2.19173
2.14831
1.03862
2.07511
1.99635
1.91026
1.94363
4.17472
1.90142
4.16734
4.30488
4.22363
2.98495
3.23869
0.881531
1.14973
1.6563
2.90884
0.979685
2.81095
1.39353
1.49817
3.08069
0.926879
2.89187
0.696937
2.64613
1.12512
3.36776
2.72856
2.95525
1.6546
0.967019
2.87532
0.685371
2.81683
1.37275
1.5345
3.0665
0.925693
2.63985
2.06075
1.16534
2.90035
3.27931
1.5464
1.80303
3.45274
3.18151
3.40235
1.5745
0.718207
3.722
3.02188
3.24464
0.888295
1.14955
1.06562
2.08477
2.11191
2.01351
2.539
1.06633
2.12981
3.20967
2.29011
2.09412
1.70467
2.12011
1.86727
4.17486
4.3856
4.31384
4.37317
3.74458
1.98567
3.43961
2.73445
2.50064
1.92006
3.88431
0.8692
1.98545
3.43691
2.74397
1.91987
3.8822
0.868821
0.781719
2.51188
1.91836
2.54256
1.66658
2.08472
2.11188
2.05256
3.249
2.35729
2.09408
1.86739
2.12004
4.17482
4.38547
4.31381
4.3731
0.963778
1.54735
3.18155
3.39919
3.44959
1.45943
1.36062
1.86446
2.14913
3.70358
1.44195
1.74832
4.05147
2.60852
3.06259
1.91216
2.07513
1.99635
2.1898
2.15434
1.91035
1.94366
4.17492
1.90144
4.16741
4.30493
4.2237
5.12169
4.36788
3.05854
3.65079
3.24587
1.92085
1.50397
2.59544
2.59559
2.59978
2.59783
2.68215
2.60298
2.59811
2.68354
2.60307
2.74087
2.74248
2.60714
1.76012
5.09997
4.3646
3.33268
2.5728
1.45109
3.64745
1.16983
2.65894
2.62805
2.70747
2.60195
2.61089
2.64049
2.60336
2.61139
2.71418
3.94573
2.7084
2.91461
4.59213
5.78461
1.4326
1.74087
4.0511
2.60361
3.06255
1.90497
0.843693
2.81388
1.20343
2.64052
2.60337
2.6114
2.71421
2.62761
2.60191
2.61091
2.70743
2.70843
2.91466
4.59201
5.78506
3.89183
2.22924
2.43893
2.67953
2.90274
3.88626
2.06146
3.81327
3.28866
3.34479
1.45068
3.64817
3.06215
3.39365
3.92774
2.08645
1.1546
3.1644
1.08107
1.21992
3.80988
2.06589
3.23934
2.1835
1.36896
2.64734
2.03582
1.42688
1.48271
0.895511
0.891205
4.31356
1.44876
3.62321
3.51014
1.70971
2.71445
3.79199
2.14294
4.04909
3.33627
2.82624
0.870661
3.2357
5.1947
4.47265
5.00794
5.69032
1.91785
1.78321
1.86867
2.35006
2.3906
3.01212
0.928579
2.09264
2.14021
2.23576
2.19707
1.97236
2.18803
4.41167
2.04455
2.2232
2.68182
2.25449
4.26961
2.15706
3.08064
2.51697
2.09616
2.33331
1.91791
2.15537
3.09879
3.14332
1.56847
1.57576
2.18694
0.917103
1.33701
1.45945
1.42109
2.95857
3.03487
2.08296
3.10566
3.15544
1.56252
3.20835
1.57193
1.578
3.37261
1.40872
2.02964
1.61707
3.39013
1.20797
2.37528
2.04167
2.00716
1.89788
3.38944
3.88463
3.96674
3.85686
3.30539
2.56502
2.11137
2.51428
1.48291
0.895534
4.31376
0.826164
1.54453
1.44924
2.53116
1.96716
2.84819
3.06601
3.42589
1.54319
2.51655
2.52454
0.779803
1.32336
1.96319
2.84792
3.06568
2.51657
3.42527
1.54266
3.35501
1.44938
1.26177
2.03101
3.3601
3.90472
3.4658
1.20528
2.42066
2.04163
2.00755
1.89948
3.96659
3.85869
3.30426
2.56186
2.51376
1.11373
2.18695
0.917223
1.33059
1.42621
1.3931
2.97064
3.04752
0.797694
1.64176
2.0829
2.25939
2.38259
3.17095
2.41018
1.09014
2.11013
3.16294
2.3986
2.13826
3.26099
2.08346
2.13433
2.23644
2.19737
1.97245
2.18831
4.41194
2.0446
2.22321
2.68185
2.25452
4.26964
2.1573
3.0789
2.09562
2.18497
2.33157
1.9174
2.15544
3.63531
3.51703
1.71303
2.71785
3.79635
2.14841
4.06343
3.39614
2.80857
0.873638
3.24119
5.03381
4.68607
6.01938
5.57344
1.91662
1.78363
1.86997
2.34983
2.39279
2.1737
0.933726
3.01547
2.54548
1.42512
2.72502
3.1456
1.52032
1.59386
0.817304
3.76763
2.94704
0.936955
1.82995
3.247
2.08917
2.15566
1.39806
0.844971
2.80531
3.73587
3.38877
1.5678
1.66493
2.47557
2.53721
3.18385
1.3037
2.10387
4.29107
4.62935
4.38058
5.085
4.76927
4.84993
3.15025
2.43113
2.25878
2.38236
3.17074
2.40993
1.09014
2.11013
3.15888
2.39863
2.13823
3.261
3.28243
4.48523
2.04447
2.23091
3.06649
3.80799
4.06671
1.94694
1.98022
2.08432
1.79965
1.75357
1.70378
3.39294
2.04627
2.13653
2.05761
2.01414
1.64063
2.19249
4.37171
2.49273
1.82478
1.93528
2.74313
2.7235
3.54986
1.84167
1.62109
2.51696
2.30221
5.40269
2.39814
3.25668
4.62788
4.10881
3.00685
1.76055
1.08457
3.72464
1.78692
2.00213
1.82356
3.78939
1.9418
3.06313
3.261
3.58082
5.14608
3.47218
2.54312
2.74895
3.17085
3.33533
5.68269
5.98855
5.30488
3.01426
3.60108
3.27769
2.74774
2.49641
5.96819
1.95734
2.67597
3.50963
1.82414
4.95894
4.51775
2.45087
0.939508
1.55586
1.54241
3.16544
3.08879
1.57366
1.61562
3.53213
0.942199
0.952215
2.77711
1.60545
1.83091
2.66242
0.930714
2.18616
4.84896
3.15008
2.4305
5.41517
3.0781
1.29375
2.09996
4.29496
4.31485
4.62299
0.899547
1.93613
1.53058
1.43201
3.1769
1.35109
1.7742
1.56998
2.64426
1.57731
3.24043
1.66117
2.3691
0.910357
1.7575
1.9839
2.45004
3.82687
2.78949
0.867511
2.14934
3.24766
1.90015
1.58665
3.71122
2.26843
3.15107
1.52039
3.08822
1.47618
0.899027
3.25604
2.09215
1.86969
2.15775
1.39898
0.847151
2.80493
3.73704
3.4337
1.63745
1.66505
2.4759
2.55643
4.34768
5.86509
5.60183
4.04153
2.73725
1.24694
3.18795
3.18795
5.21097
2.92128
5.23462
2.84442
1.40011
3.56974
3.2516
1.34753
3.30454
3.00822
2.95104
1.02777
4.97226
3.59899
1.22932
1.74058
1.55118
4.76258
5.25166
3.06653
3.26179
3.58205
5.18533
3.472
2.55464
1.87129
2.74921
3.17221
3.33609
5.68288
4.88227
3.30473
3.71512
5.66051
2.11033
5.8596
5.28097
3.00933
1.02188
2.72138
3.54679
1.84762
1.62432
2.50969
5.417
2.39835
3.25614
4.62675
4.10708
2.99172
1.76044
3.73439
1.79376
2.01024
1.82459
3.79051
1.08868
1.94668
3.42062
4.42599
2.05083
2.24305
3.06312
2.4349
3.80122
1.87618
4.06477
1.94272
2.07246
1.69263
1.52027
3.3654
2.16281
2.06746
2.20005
4.41104
2.48229
2.70946
4.35014
5.87428
5.62353
4.06877
2.74045
1.31152
2.10845
1.52247
1.4276
3.17718
1.77259
1.57621
0.876806
2.64026
1.57326
3.25046
0.83841
2.83221
0.910461
1.62803
1.75684
1.98447
2.45636
3.8368
2.78921
2.14637
3.24716
1.90031
1.58336
0.942893
2.03052
3.72188
2.57923
5.01693
1.04701
4.24244
2.35297
1.81368
6.28023
4.76845
4.26186
5.50242
0.939141
1.55655
3.19144
3.10562
1.57355
2.28496
3.55511
0.942993
0.966639
2.18377
2.78925
1.62738
1.58687
1.83177
2.66457
0.931306
2.1898
1.08276
1.61004
0.897048
2.99548
1.5402
1.57891
3.34221
2.14375
2.19111
1.60821
3.61646
1.93039
3.08725
1.5629
1.5904
3.35408
2.35273
3.17781
3.85905
6.97273
4.93266
2.42437
5.29411
3.53067
2.60379
1.09583
2.70949
5.4594
6.42348
3.04239
3.04239
2.2905
2.1233
3.1302
4.79918
1.27249
4.26795
1.39884
2.53042
2.51946
5.17653
2.84319
3.29965
3.01503
3.35363
3.35363
4.81499
2.98027
3.03687
3.25316
3.56976
2.45417
2.96897
3.5887
4.93213
1.23776
1.18892
5.589
2.74377
3.15884
3.3199
5.68206
1.5614
1.74205
3.11786
3.28549
3.6062
2.74894
3.33762
5.6853
2.75178
3.18316
3.13223
4.81205
4.29278
5.71449
2.8931
3.11257
2.69593
1.72895
3.85621
5.69571
2.54889
3.52378
5.33487
7.27743
5.19581
2.6703
5.08901
6.15749
1.17235
2.00116
2.08625
2.49666
2.22598
2.19121
2.54981
5.32968
7.27793
5.19608
2.6709
5.0891
6.15767
3.97731
4.1278
3.62291
1.81211
0.871973
3.3519
1.6739
1.6409
1.77418
2.24175
3.68186
2.1026
1.93758
1.73147
2.805
1.45395
2.95387
1.49562
3.17826
3.10148
1.56502
1.54095
1.86337
2.60579
2.03305
0.946919
3.56686
2.81045
3.17252
1.73673
1.64649
3.13382
1.58267
1.60617
2.22165
3.06285
2.23746
3.03969
2.46495
1.61659
3.63054
1.95607
0.883957
1.64978
1.77777
2.8175
1.45866
2.94115
1.47011
3.15032
3.07223
1.57037
1.57238
2.24136
3.67955
2.10236
3.17651
1.73838
1.47266
2.0185
3.16716
1.58118
1.59641
1.8633
2.60586
2.03293
0.946822
3.56662
2.81036
3.00885
2.37135
1.96938
3.66758
3.75452
4.33739
2.10426
2.23711
4.3354
2.16326
3.00837
2.37098
3.66724
3.7545
2.10971
2.49772
3.65837
3.06711
1.69031
1.73574
4.14012
3.77513
3.8877
4.00368
4.13202
1.95393
2.69567
1.83252
3.50048
2.49638
5.96635
2.45214
4.50527
4.95298
3.31922
5.67819
2.74839
3.17964
4.16548
4.80845
3.11091
3.27906
3.60238
3.33819
5.68539
2.75193
3.18349
3.11959
3.28698
3.60691
2.74997
2.10919
2.11651
2.08549
1.00575
2.49217
2.57995
3.65691
3.06592
4.13903
3.77365
3.88628
2.27999
1.88744
7.22591
3.09117
2.18725
2.19384
2.18297
1.99513
1.51119
3.67059
1.4491
1.86905
1.98449
1.5947
1.45153
1.86391
3.6706
2.15841
2.13835
2.05979
0.948455
2.14194
2.19455
2.16201
3.05706
3.05579
2.16126
1.13142
6.8853
3.09388
0.94842
2.06245
2.07356
2.14612
3.10464
1.21457
5.05725
3.33497
6.88527
1.49117
1.10174
1.81671
3.06517
2.14126
1.07039
2.08435
1.80696
2.55421
2.69382
1.51023
3.29169
2.17247
2.1688
4.32991
1.79309
2.09152
2.16116
2.16199
2.17614
1.77634
4.33148
2.15562
2.18915
1.49287
1.10112
2.13255
1.90141
2.56747
2.64331
1.52114
3.38509
1.77623
2.8024
4.1123
2.80854
4.14114
6.30642
5.03805
3.24905
2.77981
3.23282
1.56407
3.22248
3.29528
1.64848
1.59533
2.06144
1.49207
1.27602
2.05779
1.50202
2.01274
3.05575
3.90957
3.38923
2.0813
1.2178
1.21835
1.24157
1.99365
2.55963
2.3462
2.06282
1.2155
1.23925
1.99413
2.56033
2.34113
2.05759
2.29189
1.02661
3.63602
2.74475
3.82843
3.81613
0.884668
2.27852
2.20565
2.2172
2.20969
2.06235
2.03942
2.18184
1.88982
2.19898
2.20942
2.15692
1.90481
1.0999
2.32466
4.29263
2.20614
3.1331
1.42783
1.53126
3.0042
3.10928
1.48238
2.14717
1.60514
3.58178
2.39648
3.0137
1.85758
3.16704
3.05746
2.19213
2.2375
2.16875
2.58702
2.54707
2.32144
2.14268
1.85194
3.20156
1.88366
3.22198
1.99291
1.95883
2.07825
1.81674
1.07816
1.10992
2.235
2.16818
2.20404
2.54414
3.14754
1.43777
1.53323
3.00382
1.40461
3.10936
1.50576
2.14717
1.0451
3.58183
2.39649
3.01364
1.71688
3.22452
1.88519
3.23926
2.00424
3.34587
3.2531
2.09377
1.10942
1.8519
2.07547
2.24165
3.17101
2.09396
2.10418
1.91041
2.44879
2.12633
2.38003
3.81888
1.79628
2.12957
4.08313
1.82768
1.92924
4.38058
4.39562
2.07177
2.10171
4.33253
2.51169
4.35711
2.13697
1.83538
1.77536
2.05631
2.25958
2.30995
2.09397
2.39177
2.10417
2.36221
2.16587
2.25668
1.89665
1.86259
2.41215
2.45158
2.12631
2.38953
3.17241
1.70301
4.1112
1.80874
2.12954
1.92921
4.38048
1.19803
4.39554
2.51169
2.10174
4.3325
2.13126
4.35701
2.07104
3.21462
3.2485
2.17487
2.16467
2.15768
3.30067
3.27736
1.54224
2.1522
2.13369
2.14396
1.58683
1.87462
2.21861
1.7072
1.55183
2.82868
2.26243
1.63038
2.09927
1.68693
3.65453
1.83564
3.33527
3.42452
2.13719
2.09618
2.09692
0.892288
1.11922
2.16742
0.886186
1.02811
2.06444
2.08379
2.20851
2.21731
2.23199
2.06236
2.31386
2.03942
2.18283
2.16665
1.88988
1.9048
2.16912
2.32467
4.29271
1.09987
2.65079
2.22002
1.13187
7.82025
5.37377
1.06597
2.10757
1.91655
1.94337
3.56617
3.67121
2.67707
2.67433
3.07584
3.00688
3.48491
1.76905
2.54109
1.13037
7.8246
6.07776
1.06544
2.10567
1.94212
1.91474
3.57055
2.66292
3.67546
3.07756
3.48647
3.00994
1.91513
3.14112
3.86022
2.01925
1.97826
2.28035
1.99012
3.53738
5.34194
7.27778
5.19724
2.67135
5.08899
6.15737
1.54582
2.82866
2.26242
1.62256
2.09062
3.21686
3.23989
2.15795
2.1507
1.52439
3.29739
3.26391
2.15795
2.13352
2.14463
2.09861
2.10833
3.65693
1.8301
1.77357
1.97745
1.20817
3.32824
3.41552
2.09675
1.96538
0.892618
1.8966
1.11921
2.1654
0.892128
1.02811
2.0561
2.0531
2.01113
2.33772
2.19638
7.27795
5.19768
5.34235
3.53771
2.67145
5.08899
6.15759
2.42434
6.97332
4.93212
5.29402
2.60378
1.08034
2.11655
2.71818
5.44722
6.42255
3.04217
3.04217
2.2897
3.85926
1.34043
5.17583
1.68739
1.07112
2.47279
2.73324
2.41111
2.07296
1.41944
1.46039
2.62423
2.36732
2.19584
1.944
0.943571
3.2279
4.86185
5.16402
6.0009
5.26088
5.97711
5.28586
5.41841
5.47436
0.95652
1.36148
2.60131
1.60028
1.5708
0.971736
1.80964
2.5448
2.81658
2.45903
2.15529
2.21915
2.2081
2.04817
2.15938
2.08185
2.16508
2.15578
1.84563
3.39687
2.62483
2.62784
1.13527
4.45869
3.23816
3.53242
2.04205
1.29736
2.49026
2.48461
2.06867
3.21215
2.35006
2.00073
2.15133
1.31328
1.98939
2.30185
4.13983
1.80355
5.6301
3.89085
5.32191
3.81503
5.29014
5.24913
1.28009
1.82154
3.33765
1.22315
2.4921
3.53925
2.04192
1.31053
1.1302
2.48311
2.07054
3.3441
2.36399
1.11681
2.0007
2.16069
1.98945
2.31268
1.12509
4.18515
1.81098
5.62994
3.89077
5.32187
5.29264
3.81513
5.24981
1.84008
2.2035
2.20095
2.30055
2.34981
1.68697
1.98997
1.94699
2.57465
2.01063
2.02161
2.4657
2.19295
2.22778
1.83592
2.04449
1.44471
3.35121
2.24372
2.16869
2.15169
2.10701
2.01235
2.3299
1.13518
4.45937
2.16318
2.15817
2.2197
2.20849
2.11749
2.0567
2.1695
2.17584
2.08202
2.16523
3.39944
2.62544
1.19031
2.0834
2.15154
1.68489
2.46637
2.65355
2.42529
2.07222
1.42913
1.46659
2.75965
2.39337
2.31309
2.07476
0.94307
3.23117
4.94308
4.90523
5.84861
5.40405
5.72408
5.24148
5.14728
5.36271
1.30009
1.60136
0.948589
0.934804
2.52273
2.43863
2.20718
2.30009
2.07835
2.3495
2.03178
2.18524
2.57448
2.01122
2.46551
2.19292
2.22772
1.83591
2.04449
2.15165
2.10696
1.44495
3.34378
2.24371
2.16867
2.01231
2.32987
3.35908
3.52233
2.65266
2.64795
2.66316
2.27883
1.57787
4.72531
1.57625
1.38092
1.54673
3.47354
3.80255
6.19881
4.64478
4.25504
1.51381
1.51381
1.51381
4.21687
3.40891
3.31448
4.07946
5.66008
5.61248
4.97334
6.1992
4.58996
4.24775
1.46072
4.22417
3.31377
4.05054
2.47259
6.30951
5.0315
1.98551
1.98092
3.13786
3.75348
1.10225
1.10234
3.83682
3.81594
2.50202
3.99313
4.50184
2.99733
1.12259
1.90613
6.71487
3.48817
1.36326
6.93989
6.52573
6.64524
6.3521
7.60059
8.58453
1.44197
3.77357
2.53584
2.93991
2.39213
1.7831
2.09233
2.81737
1.51868
2.08965
1.91377
4.92032
2.56429
1.50859
2.21145
1.2766
6.71715
1.47036
2.27775
3.49465
1.36435
6.9549
6.64923
6.69155
6.44774
7.60491
8.58613
3.78646
2.54099
2.34195
1.78199
2.08841
1.02101
2.81786
1.51963
4.93579
2.56297
2.20011
2.09831
1.91678
3.30167
3.39752
4.49093
1.30595
3.4306
1.44382
3.42904
1.4159
1.30668
2.34404
1.99918
3.09336
1.31702
2.34442
3.06251
1.3057
2.6839
3.35524
3.71097
3.71188
0.927674
2.09501
2.59294
2.59296
2.62655
2.60724
2.62809
2.60805
2.59299
2.59298
2.62891
2.60823
2.62771
2.60743
2.18124
2.59296
2.59294
2.62816
2.60807
2.62638
2.60719
2.13801
3.09212
5.08467
5.15292
5.14436
5.05442
3.29259
5.09134
3.30116
4.54876
4.82098
4.94585
4.56161
2.55067
6.06541
5.05894
5.05795
2.50129
4.5475
4.80856
4.95367
4.56244
5.35082
2.27377
1.57789
1.52121
2.94266
4.99574
4.98829
2.50293
2.50854
1.18979
2.18403
2.2331
2.17167
1.81762
1.90898
2.59298
2.593
2.60748
2.62781
2.60824
2.62897
1.15839
2.49206
2.33814
3.23814
3.99992
1.6311
1.45525
5.16217
1.61109
3.0454
5.16323
3.37141
3.34954
3.4201
1.40218
1.76389
1.4104
3.42171
3.35603
1.74421
2.602
2.60259
2.60066
2.59891
2.59903
2.59926
2.6008
2.59935
2.59977
2.60156
2.59966
2.59998
2.49582
2.33607
2.55455
2.32479
1.59406
3.41382
1.40154
3.37117
1.41565
1.40676
3.42458
3.39468
3.36431
1.76148
2.60257
2.60197
2.60066
2.59902
2.59892
2.59926
2.60155
2.59966
2.59999
2.60076
2.59933
2.59975
2.89821
0.860362
2.77388
3.18579
1.55476
3.20814
3.17666
3.77174
4.07558
2.43994
1.34169
1.64951
2.62941
3.81155
3.82227
4.05331
2.43921
1.34351
2.52523
3.77797
1.41806
1.50863
2.85958
2.77468
3.51538
1.52362
2.69054
1.55412
1.21549
2.78491
1.83882
2.2326
3.29444
2.48315
2.36419
2.42268
5.87571
4.80066
4.53418
5.39515
4.90515
4.54367
2.44869
5.89282
4.9326
4.55881
5.92799
4.91242
4.55577
1.14191
2.85946
2.4719
6.01429
5.0399
5.07544
5.46848
3.53737
5.02733
4.95971
5.08858
3.3121
2.4926
2.4831
2.36514
2.42911
5.8807
4.80927
4.53598
4.90651
4.54435
2.4493
5.8946
4.93255
4.55888
2.4944
5.92805
4.9132
4.55593
2.49097
5.91528
2.49199
4.91905
4.54888
5.91819
2.49085
4.91727
4.55109
5.00467
5.00894
2.46751
2.47198
2.48946
2.48924
5.91605
4.55888
4.9324
4.91848
4.55623
2.49372
2.49034
5.92909
3.52819
1.53052
2.71431
2.78405
1.62503
5.1318
4.66276
2.34344
3.54229
3.70763
1.26665
4.09849
3.36689
3.06188
2.47602
6.03131
5.0449
5.07617
1.57274
1.89091
1.40981
1.69855
5.70347
3.0184
2.49044
5.91503
4.91932
4.54842
5.91843
2.49094
4.91703
4.55069
5.00389
5.00892
2.46757
2.47122
2.48888
2.48844
5.91584
4.55875
4.93219
4.91856
4.5561
5.92859
2.77489
2.64243
2.77262
2.64156
2.61445
2.61418
2.59383
2.59596
2.59391
2.59609
2.59722
2.5973
2.64404
2.6235
2.60124
2.59839
2.60764
2.59981
2.64593
2.62445
2.60173
2.59865
2.60804
2.60003
2.78339
2.6448
2.78485
2.64538
2.61616
2.61635
2.59395
2.59628
2.59387
2.59616
2.59766
2.59758
2.64755
2.62622
2.60185
2.59893
2.60924
2.60056
2.64624
2.62556
2.60136
2.59868
2.60894
2.60037
2.19001
2.28514
1.82418
1.42027
2.08776
3.6021
1.92605
2.77495
2.64246
2.77228
2.64148
2.61446
2.61416
2.59391
2.59609
2.59382
2.59593
2.5973
2.5972
2.64602
2.62447
2.60174
2.59866
2.60805
2.60004
2.64388
2.62341
2.6012
2.59835
2.60759
2.59978
2.09997
2.11153
1.41669
1.95458
4.366
3.10229
4.71133
3.02915
1.33261
2.22661
4.24808
2.10043
4.04136
3.33938
3.06519
2.04158
3.70761
4.79296
5.03099
5.46143
3.53758
4.55956
4.91875
4.566
4.96237
5.91818
5.96378
2.50729
2.49609
5.07541
5.05203
6.05173
2.55155
2.73692
5.08486
3.31469
2.50886
5.03573
5.0128
2.51083
4.38071
3.14832
4.7392
3.02729
1.2466
1.3309
2.22612
4.24884
2.10195
1.52247
1.57043
1.49312
2.60621
2.62029
2.61296
2.61722
2.64877
2.62025
2.60418
2.60792
2.60939
2.64376
2.6699
2.6278
2.62296
2.60929
2.60931
2.63472
2.62642
2.61313
2.61375
2.60422
2.60705
2.6042
2.60233
2.60467
3.92213
4.95434
4.70124
5.94706
7.24695
3.64547
2.62144
2.60887
2.60859
2.63215
2.62507
2.61201
2.61314
2.60409
2.60653
2.60401
2.60223
2.60433
2.60619
2.62023
2.61293
2.61719
2.64873
2.62023
2.60417
2.60791
2.60938
2.64369
2.66984
2.62778
3.92166
4.95444
4.70125
5.94705
7.2471
3.64619
3.36663
1.76586
2.55954
1.44637
4.83857
2.20235
2.41204
4.37775
1.23427
2.54824
1.45774
4.78883
2.67378
2.11195
4.80861
2.40763
2.36455
4.37677
2.55084
6.06513
2.73972
5.05492
5.0568
2.45016
5.02716
4.95934
5.08961
3.29219
2.49269
5.1166
5.38552
5.47304
2.74874
4.55997
4.91893
4.56668
4.96273
5.91822
5.96391
2.50739
2.4962
5.07593
5.05225
6.05165
2.55178
2.5104
5.03614
5.01309
5.08726
3.29543
2.51137
5.46555
1.76464
3.28615
2.0881
2.386
2.08635
2.08675
2.15255
2.46041
1.28513
1.53952
1.54811
2.59893
2.59905
2.59932
2.59939
2.6011
2.59987
2.59969
2.60166
2.60008