# Wall shear stress
# Time        	patch         	min           	max           
0.000000e+00	propellerTip	(0.000000e+00 0.000000e+00 0.000000e+00)	(0.000000e+00 0.000000e+00 0.000000e+00)
5.014850e-05	propellerTip	(-8.567766e+00 -1.806800e+01 -4.511797e+01)	(8.668973e+00 1.198464e+01 4.510997e+01)
9.883637e-05	propellerTip	(-9.563483e+00 -1.861619e+01 -4.436853e+01)	(9.690778e+00 1.010880e+01 4.436005e+01)
1.534940e-04	propellerTip	(-1.021920e+01 -1.995808e+01 -4.418228e+01)	(1.036980e+01 9.260397e+00 4.416091e+01)
2.115043e-04	propellerTip	(-1.059169e+01 -2.081646e+01 -4.409532e+01)	(1.075888e+01 8.915394e+00 4.408098e+01)
2.710423e-04	propellerTip	(-1.081103e+01 -2.120510e+01 -4.396072e+01)	(1.100395e+01 8.948047e+00 4.392160e+01)
3.327664e-04	propellerTip	(-1.094423e+01 -2.169697e+01 -4.378119e+01)	(1.113281e+01 8.958174e+00 4.578775e+01)
3.973694e-04	propellerTip	(-1.158610e+01 -2.090819e+01 -4.447359e+01)	(1.126242e+01 1.008792e+01 4.490708e+01)
4.630683e-04	propellerTip	(-1.075678e+01 -2.147901e+01 -4.379378e+01)	(1.113144e+01 8.871037e+00 4.419469e+01)
5.299994e-04	propellerTip	(-1.116826e+01 -2.519485e+01 -4.594862e+01)	(1.128651e+01 9.199947e+00 4.380385e+01)
5.968417e-04	propellerTip	(-1.012560e+01 -2.086597e+01 -4.532365e+01)	(1.059895e+01 8.950826e+00 4.924570e+01)
6.631310e-04	propellerTip	(-1.067051e+01 -2.120357e+01 -4.328144e+01)	(1.081122e+01 8.771490e+00 4.406566e+01)
7.287179e-04	propellerTip	(-1.072800e+01 -2.023571e+01 -4.317963e+01)	(1.021254e+01 2.028086e+01 4.193610e+01)
7.937261e-04	propellerTip	(-1.076904e+01 -1.996013e+01 -4.321090e+01)	(1.060709e+01 8.799500e+00 4.279428e+01)
8.578616e-04	propellerTip	(-1.070808e+01 -1.927006e+01 -4.341345e+01)	(1.131548e+01 9.345174e+00 4.355396e+01)
9.207104e-04	propellerTip	(-1.054393e+01 -1.908129e+01 -4.844470e+01)	(1.042020e+01 8.628973e+00 4.933254e+01)
9.814364e-04	propellerTip	(-1.068094e+01 -1.916923e+01 -4.487963e+01)	(1.052668e+01 8.674436e+00 4.459553e+01)
1.040397e-03	propellerTip	(-1.043792e+01 -1.804046e+01 -4.406572e+01)	(1.078534e+01 9.884650e+00 4.615151e+01)
1.099036e-03	propellerTip	(-1.035209e+01 -1.891219e+01 -4.262500e+01)	(1.045581e+01 8.591176e+00 4.319697e+01)
1.157615e-03	propellerTip	(-1.054855e+01 -1.965383e+01 -4.386640e+01)	(1.042774e+01 8.849062e+00 4.302621e+01)
1.216392e-03	propellerTip	(-1.056401e+01 -1.729915e+01 -4.673505e+01)	(1.043581e+01 8.660528e+00 4.285610e+01)
1.275413e-03	propellerTip	(-1.053735e+01 -1.875948e+01 -4.696044e+01)	(9.847926e+00 8.774334e+00 4.246653e+01)
1.334732e-03	propellerTip	(-1.056630e+01 -1.681127e+01 -4.477793e+01)	(1.030821e+01 8.969074e+00 4.648723e+01)
1.394711e-03	propellerTip	(-1.051431e+01 -1.904692e+01 -4.518331e+01)	(1.123861e+01 8.910512e+00 4.504182e+01)
1.455466e-03	propellerTip	(-1.044289e+01 -1.788631e+01 -4.580873e+01)	(1.038965e+01 8.912375e+00 4.501918e+01)
1.516511e-03	propellerTip	(-1.063405e+01 -1.827644e+01 -4.310011e+01)	(1.074646e+01 8.983479e+00 4.382584e+01)
1.577653e-03	propellerTip	(-1.119089e+01 -1.867226e+01 -4.271745e+01)	(1.135964e+01 9.206849e+00 4.311898e+01)
1.638890e-03	propellerTip	(-1.168384e+01 -1.774835e+01 -4.206832e+01)	(1.188375e+01 9.405267e+00 4.250822e+01)
1.700349e-03	propellerTip	(-1.189749e+01 -1.747993e+01 -4.240179e+01)	(1.192637e+01 9.588974e+00 4.173330e+01)
1.762249e-03	propellerTip	(-1.203049e+01 -1.714930e+01 -4.080112e+01)	(1.253018e+01 9.755779e+00 4.263249e+01)
1.824758e-03	propellerTip	(-1.297051e+01 -1.832586e+01 -4.195345e+01)	(1.297662e+01 9.907429e+00 4.160011e+01)
1.887879e-03	propellerTip	(-1.313959e+01 -1.742343e+01 -4.275228e+01)	(1.323998e+01 1.004192e+01 4.148623e+01)
1.951551e-03	propellerTip	(-1.369979e+01 -1.789031e+01 -4.505515e+01)	(1.328422e+01 1.056811e+01 4.186004e+01)
2.015694e-03	propellerTip	(-1.382924e+01 -1.696463e+01 -4.204981e+01)	(1.342027e+01 1.028461e+01 4.216829e+01)
2.080195e-03	propellerTip	(-1.422385e+01 -1.793901e+01 -4.423623e+01)	(1.336859e+01 1.036491e+01 4.268589e+01)
2.145005e-03	propellerTip	(-1.437132e+01 -1.759169e+01 -4.223895e+01)	(1.428192e+01 1.043548e+01 4.407896e+01)
2.209971e-03	propellerTip	(-1.502847e+01 -1.718276e+01 -4.218945e+01)	(1.473449e+01 1.048785e+01 4.366386e+01)
2.275094e-03	propellerTip	(-1.536475e+01 -1.789257e+01 -4.215291e+01)	(1.414038e+01 1.051246e+01 4.456475e+01)
2.340436e-03	propellerTip	(-1.538797e+01 -1.757684e+01 -4.772172e+01)	(1.376026e+01 1.050397e+01 4.156162e+01)
2.406133e-03	propellerTip	(-1.505419e+01 -1.688983e+01 -4.224094e+01)	(1.439812e+01 1.045907e+01 4.368635e+01)
2.472003e-03	propellerTip	(-1.514242e+01 -1.774410e+01 -4.441662e+01)	(1.478453e+01 1.037347e+01 4.210426e+01)
2.537774e-03	propellerTip	(-1.464630e+01 -1.816498e+01 -4.203530e+01)	(1.442171e+01 1.025574e+01 4.289915e+01)
2.603341e-03	propellerTip	(-1.397059e+01 -2.087808e+01 -4.157219e+01)	(1.381274e+01 1.010635e+01 4.324383e+01)
2.668701e-03	propellerTip	(-1.497866e+01 -1.745203e+01 -4.322027e+01)	(1.396942e+01 9.913926e+00 4.642206e+01)
2.733812e-03	propellerTip	(-1.520735e+01 -2.207884e+01 -4.216029e+01)	(1.396009e+01 9.686514e+00 4.221812e+01)
2.798464e-03	propellerTip	(-1.507773e+01 -1.795379e+01 -4.770719e+01)	(1.440454e+01 9.432357e+00 4.508539e+01)
2.862518e-03	propellerTip	(-1.465590e+01 -1.848955e+01 -4.253771e+01)	(1.458831e+01 9.146283e+00 4.310159e+01)
2.926101e-03	propellerTip	(-1.415112e+01 -1.605220e+01 -4.305072e+01)	(1.433682e+01 8.835155e+00 4.263233e+01)
2.989569e-03	propellerTip	(-1.357087e+01 -1.822743e+01 -4.690338e+01)	(1.456580e+01 8.752743e+00 4.255899e+01)
3.053321e-03	propellerTip	(-1.364041e+01 -1.853411e+01 -4.381792e+01)	(1.495393e+01 9.338897e+00 4.246862e+01)
3.117511e-03	propellerTip	(-1.383461e+01 -1.691682e+01 -4.282269e+01)	(1.581583e+01 8.864750e+00 4.266947e+01)
3.181890e-03	propellerTip	(-1.412060e+01 -1.802782e+01 -4.280276e+01)	(1.612306e+01 8.509570e+00 4.214160e+01)
3.246167e-03	propellerTip	(-1.438069e+01 -1.703129e+01 -4.330331e+01)	(1.622810e+01 8.477727e+00 4.195043e+01)
3.310107e-03	propellerTip	(-1.476887e+01 -1.822993e+01 -4.260517e+01)	(1.609159e+01 9.344671e+00 4.182548e+01)
3.373377e-03	propellerTip	(-1.533851e+01 -1.866441e+01 -4.470554e+01)	(1.582960e+01 8.776828e+00 4.388840e+01)
3.435394e-03	propellerTip	(-1.600886e+01 -8.053516e+01 -4.220328e+01)	(1.552717e+01 9.187378e+00 4.533949e+01)
3.496012e-03	propellerTip	(-1.629264e+01 -2.259796e+01 -4.405346e+01)	(1.580301e+01 9.902441e+00 4.234775e+01)
3.555946e-03	propellerTip	(-1.636221e+01 -1.962787e+01 -4.227413e+01)	(1.562996e+01 8.576443e+00 4.251031e+01)
3.615397e-03	propellerTip	(-1.666886e+01 -2.030664e+01 -4.453581e+01)	(1.542765e+01 9.429318e+00 4.266516e+01)
3.674422e-03	propellerTip	(-1.693020e+01 -2.022863e+01 -4.244533e+01)	(1.575236e+01 3.690157e+01 5.761357e+01)
3.733227e-03	propellerTip	(-1.727792e+01 -2.059023e+01 -4.118296e+01)	(1.588790e+01 8.972203e+00 4.434109e+01)
3.792082e-03	propellerTip	(-1.761464e+01 -1.956459e+01 -4.225997e+01)	(1.601226e+01 8.601805e+00 4.221216e+01)
3.851423e-03	propellerTip	(-1.784481e+01 -1.940840e+01 -4.035735e+01)	(1.604755e+01 9.183560e+00 4.633646e+01)
3.911558e-03	propellerTip	(-1.794116e+01 -1.845157e+01 -4.034810e+01)	(1.601837e+01 8.579995e+00 4.375290e+01)
3.972421e-03	propellerTip	(-1.807851e+01 -1.766152e+01 -4.024290e+01)	(1.587295e+01 8.485957e+00 4.112802e+01)
4.034325e-03	propellerTip	(-1.820690e+01 -1.685007e+01 -4.267533e+01)	(1.630452e+01 1.008805e+01 4.262038e+01)
4.097484e-03	propellerTip	(-1.840865e+01 -1.660027e+01 -4.046650e+01)	(1.630983e+01 8.144321e+00 3.970021e+01)
4.162014e-03	propellerTip	(-1.846227e+01 -1.564989e+01 -4.181808e+01)	(1.627431e+01 1.039644e+01 4.212393e+01)
4.227917e-03	propellerTip	(-1.831817e+01 -1.557951e+01 -4.011073e+01)	(1.650458e+01 8.092408e+00 3.983183e+01)
4.295159e-03	propellerTip	(-1.785408e+01 -1.474511e+01 -4.185721e+01)	(1.586010e+01 7.966257e+00 3.960981e+01)
4.363867e-03	propellerTip	(-1.685345e+01 -1.452404e+01 -3.944641e+01)	(1.506147e+01 8.396473e+00 4.145782e+01)
4.433928e-03	propellerTip	(-1.578062e+01 -1.457763e+01 -4.203114e+01)	(1.462919e+01 7.958003e+00 4.105274e+01)
4.505060e-03	propellerTip	(-1.481080e+01 -1.519212e+01 -4.569768e+01)	(1.433404e+01 9.009480e+00 4.086786e+01)
4.576815e-03	propellerTip	(-1.411920e+01 -1.544602e+01 -4.225871e+01)	(1.419625e+01 1.344741e+01 4.593619e+01)
4.649077e-03	propellerTip	(-1.432730e+01 -1.610970e+01 -4.233218e+01)	(1.391638e+01 8.733174e+00 4.325949e+01)
4.721327e-03	propellerTip	(-1.447946e+01 -1.681497e+01 -4.374474e+01)	(1.350165e+01 8.633626e+00 4.325037e+01)
4.792861e-03	propellerTip	(-1.463136e+01 -1.676759e+01 -4.169564e+01)	(1.317539e+01 8.405860e+00 4.199507e+01)
4.864016e-03	propellerTip	(-1.467734e+01 -1.732554e+01 -4.161423e+01)	(1.310660e+01 8.848714e+00 4.492189e+01)
4.935518e-03	propellerTip	(-1.464178e+01 -1.869387e+01 -4.465572e+01)	(1.310911e+01 8.865372e+00 5.055866e+01)
5.007039e-03	propellerTip	(-1.456452e+01 -1.825785e+01 -4.288467e+01)	(1.315763e+01 8.717821e+00 4.292523e+01)
5.076846e-03	propellerTip	(-1.447391e+01 -1.852102e+01 -4.725296e+01)	(1.315993e+01 1.398052e+01 4.509722e+01)
5.146900e-03	propellerTip	(-1.464502e+01 -1.882948e+01 -4.346585e+01)	(1.324696e+01 8.756310e+00 4.304468e+01)
5.216944e-03	propellerTip	(-1.462844e+01 -1.892706e+01 -4.387214e+01)	(1.382661e+01 9.792166e+00 4.402593e+01)
5.286931e-03	propellerTip	(-1.460418e+01 -1.854282e+01 -4.186524e+01)	(1.481081e+01 8.889805e+00 4.302433e+01)
5.356573e-03	propellerTip	(-1.596713e+01 -2.396232e+01 -4.193241e+01)	(1.608863e+01 8.829158e+00 4.207475e+01)
5.426773e-03	propellerTip	(-1.664975e+01 -1.908604e+01 -4.213083e+01)	(1.670641e+01 8.813848e+00 4.141834e+01)
5.496677e-03	propellerTip	(-1.772533e+01 -1.864009e+01 -4.341449e+01)	(1.816731e+01 9.052356e+00 4.120205e+01)
5.565662e-03	propellerTip	(-1.755469e+01 -1.913322e+01 -4.324325e+01)	(1.802246e+01 9.328734e+00 4.129163e+01)
5.635578e-03	propellerTip	(-1.785382e+01 -1.853807e+01 -4.323073e+01)	(1.878470e+01 1.346646e+01 4.150635e+01)
5.706471e-03	propellerTip	(-1.791684e+01 -1.904444e+01 -4.413477e+01)	(1.918564e+01 9.824352e+00 4.095604e+01)
5.776215e-03	propellerTip	(-1.784199e+01 -1.891414e+01 -4.229765e+01)	(1.894898e+01 1.002090e+01 4.185208e+01)
5.847379e-03	propellerTip	(-1.775550e+01 -1.878382e+01 -4.245511e+01)	(1.819901e+01 1.019782e+01 4.323801e+01)
5.917808e-03	propellerTip	(-1.723387e+01 -4.214273e+01 -4.162791e+01)	(1.685057e+01 1.034405e+01 4.078736e+01)
5.988414e-03	propellerTip	(-1.630691e+01 -1.836494e+01 -4.019781e+01)	(1.556003e+01 1.049672e+01 4.086555e+01)
6.058704e-03	propellerTip	(-1.480787e+01 -1.878578e+01 -4.113252e+01)	(1.435191e+01 1.064468e+01 4.009518e+01)
6.129324e-03	propellerTip	(-1.361816e+01 -1.886974e+01 -4.107339e+01)	(1.349428e+01 1.077157e+01 3.981612e+01)
6.200148e-03	propellerTip	(-1.349969e+01 -1.874628e+01 -4.050858e+01)	(1.353344e+01 1.088163e+01 3.878140e+01)
6.271051e-03	propellerTip	(-1.367365e+01 -1.798774e+01 -4.066530e+01)	(1.370074e+01 1.097079e+01 3.901410e+01)
6.342081e-03	propellerTip	(-1.381354e+01 -1.790124e+01 -3.981678e+01)	(1.383317e+01 1.106548e+01 3.870942e+01)
6.412813e-03	propellerTip	(-1.391645e+01 -1.785309e+01 -3.897221e+01)	(1.392928e+01 1.115949e+01 3.855941e+01)
6.483146e-03	propellerTip	(-1.398326e+01 -1.701400e+01 -3.971568e+01)	(1.398900e+01 1.125497e+01 3.886180e+01)
6.553248e-03	propellerTip	(-1.400777e+01 -1.776290e+01 -3.896709e+01)	(1.400872e+01 1.133901e+01 3.842502e+01)
6.623417e-03	propellerTip	(-1.399262e+01 -1.795807e+01 -3.910830e+01)	(1.399187e+01 1.141011e+01 3.823147e+01)
6.693825e-03	propellerTip	(-1.393804e+01 -1.801169e+01 -3.887056e+01)	(1.393804e+01 1.147928e+01 3.814554e+01)
6.764578e-03	propellerTip	(-1.385215e+01 -1.728719e+01 -3.894037e+01)	(1.385176e+01 1.155044e+01 3.807847e+01)
6.835830e-03	propellerTip	(-1.373183e+01 -1.784141e+01 -3.853097e+01)	(1.373345e+01 1.163008e+01 3.748421e+01)
6.907527e-03	propellerTip	(-1.357182e+01 -1.802613e+01 -3.837866e+01)	(1.357871e+01 1.170966e+01 3.833917e+01)
6.979680e-03	propellerTip	(-1.337847e+01 -1.776740e+01 -3.776926e+01)	(1.339225e+01 1.179853e+01 3.798935e+01)
7.052046e-03	propellerTip	(-1.316417e+01 -1.816721e+01 -3.804263e+01)	(1.338119e+01 1.190899e+01 3.803058e+01)
7.124438e-03	propellerTip	(-1.347391e+01 -1.785659e+01 -3.796747e+01)	(1.401416e+01 1.203148e+01 3.793845e+01)
7.197308e-03	propellerTip	(-1.364919e+01 -1.788837e+01 -3.747002e+01)	(1.415446e+01 1.215062e+01 3.786978e+01)
7.269738e-03	propellerTip	(-1.408019e+01 -1.781303e+01 -3.779166e+01)	(1.428573e+01 1.223100e+01 3.781317e+01)
7.342668e-03	propellerTip	(-1.435278e+01 -1.744747e+01 -3.772329e+01)	(1.465303e+01 1.223489e+01 3.766373e+01)
7.416022e-03	propellerTip	(-1.478153e+01 -1.731248e+01 -3.764730e+01)	(1.475004e+01 1.221460e+01 3.754636e+01)
7.489321e-03	propellerTip	(-1.514336e+01 -1.714664e+01 -3.767686e+01)	(1.460557e+01 1.216264e+01 3.740300e+01)
7.563167e-03	propellerTip	(-1.530263e+01 -1.687158e+01 -3.764300e+01)	(1.428358e+01 1.206591e+01 3.909401e+01)
7.637171e-03	propellerTip	(-1.506069e+01 -1.671481e+01 -3.772353e+01)	(1.398158e+01 1.193502e+01 3.724882e+01)
7.709935e-03	propellerTip	(-1.469317e+01 -1.694782e+01 -3.760917e+01)	(1.369231e+01 1.179082e+01 3.723922e+01)
7.782469e-03	propellerTip	(-1.404959e+01 -1.666991e+01 -3.771259e+01)	(1.346474e+01 1.162127e+01 3.715769e+01)
7.856240e-03	propellerTip	(-1.363219e+01 -1.672257e+01 -3.753073e+01)	(1.339951e+01 1.145501e+01 3.726343e+01)
7.929896e-03	propellerTip	(-1.353905e+01 -1.679974e+01 -3.771531e+01)	(1.320188e+01 1.126645e+01 3.727081e+01)
8.003963e-03	propellerTip	(-1.352585e+01 -1.671254e+01 -3.759425e+01)	(1.313022e+01 1.109347e+01 3.730653e+01)
8.078347e-03	propellerTip	(-1.356127e+01 -1.646232e+01 -3.756108e+01)	(1.303523e+01 1.092456e+01 3.737374e+01)
8.152757e-03	propellerTip	(-1.362624e+01 -1.687104e+01 -3.747525e+01)	(1.294870e+01 1.076122e+01 3.744717e+01)
8.226911e-03	propellerTip	(-1.366398e+01 -1.656065e+01 -3.751650e+01)	(1.293214e+01 1.060713e+01 3.749793e+01)
8.300876e-03	propellerTip	(-1.364888e+01 -1.625040e+01 -3.753378e+01)	(1.290698e+01 1.046294e+01 3.750446e+01)
8.374445e-03	propellerTip	(-1.352660e+01 -1.542612e+01 -3.766264e+01)	(1.278334e+01 1.032553e+01 3.747925e+01)
8.447485e-03	propellerTip	(-1.328377e+01 -1.517233e+01 -3.778129e+01)	(1.252928e+01 1.019811e+01 3.749592e+01)
8.519986e-03	propellerTip	(-1.294264e+01 -1.599061e+01 -3.799138e+01)	(1.225968e+01 1.008591e+01 3.753266e+01)
8.592972e-03	propellerTip	(-1.261285e+01 -1.482554e+01 -3.998629e+01)	(1.191907e+01 1.000419e+01 3.762574e+01)
8.666398e-03	propellerTip	(-1.242221e+01 -1.936956e+01 -3.837291e+01)	(1.159032e+01 2.048595e+01 3.776554e+01)
8.740259e-03	propellerTip	(-1.219055e+01 -1.482663e+01 -3.866779e+01)	(1.130987e+01 9.932517e+00 3.959941e+01)
8.814309e-03	propellerTip	(-1.188063e+01 -1.497374e+01 -3.892498e+01)	(1.106523e+01 9.935053e+00 3.821804e+01)
8.888420e-03	propellerTip	(-1.243366e+01 -1.544977e+01 -3.920290e+01)	(1.083691e+01 9.957041e+00 3.851129e+01)
8.962661e-03	propellerTip	(-1.238151e+01 -1.548211e+01 -3.947026e+01)	(1.068680e+01 9.968517e+00 3.882576e+01)
9.037105e-03	propellerTip	(-1.205911e+01 -1.578445e+01 -3.973103e+01)	(1.081963e+01 9.958648e+00 3.915152e+01)
9.111375e-03	propellerTip	(-1.171688e+01 -1.609385e+01 -3.998746e+01)	(1.067026e+01 9.927706e+00 4.199898e+01)
9.185371e-03	propellerTip	(-1.136863e+01 -1.637085e+01 -4.019071e+01)	(1.034769e+01 9.880061e+00 3.971513e+01)
9.259294e-03	propellerTip	(-1.106327e+01 -1.662713e+01 -4.043940e+01)	(9.865801e+00 9.819061e+00 4.018417e+01)
9.333372e-03	propellerTip	(-1.078298e+01 -1.681168e+01 -4.053815e+01)	(9.710634e+00 9.745171e+00 4.023158e+01)
9.406881e-03	propellerTip	(-1.053548e+01 -1.696157e+01 -4.069599e+01)	(9.779324e+00 9.975163e+00 4.043332e+01)
9.480210e-03	propellerTip	(-1.024046e+01 -1.703134e+01 -4.071778e+01)	(9.815113e+00 9.715775e+00 4.053020e+01)
9.553324e-03	propellerTip	(-9.940363e+00 -1.707094e+01 -4.079537e+01)	(9.826208e+00 9.465432e+00 4.059020e+01)
9.626774e-03	propellerTip	(-9.788700e+00 -1.707967e+01 -4.080770e+01)	(9.836819e+00 9.360997e+00 4.062902e+01)
9.700373e-03	propellerTip	(-9.653557e+00 -1.712600e+01 -4.075210e+01)	(9.842105e+00 9.246856e+00 4.081125e+01)
9.773815e-03	propellerTip	(-9.613180e+00 -1.709455e+01 -4.214547e+01)	(9.819445e+00 9.126452e+00 4.076147e+01)
9.847468e-03	propellerTip	(-9.592198e+00 -1.708117e+01 -4.066420e+01)	(9.818496e+00 9.007176e+00 4.099415e+01)
9.921165e-03	propellerTip	(-9.619344e+00 -1.707405e+01 -4.120937e+01)	(9.832408e+00 8.873170e+00 4.063347e+01)
9.994659e-03	propellerTip	(-9.641655e+00 -1.712257e+01 -4.021697e+01)	(9.822368e+00 8.735996e+00 4.095809e+01)
1.006809e-02	propellerTip	(-9.678706e+00 -1.716241e+01 -4.056545e+01)	(9.822424e+00 9.422642e+00 4.001926e+01)
1.014114e-02	propellerTip	(-9.733155e+00 -1.720492e+01 -4.424349e+01)	(9.835325e+00 8.444044e+00 4.074224e+01)
1.021448e-02	propellerTip	(-9.778960e+00 -1.758220e+01 -4.052176e+01)	(9.894854e+00 8.293069e+00 4.125182e+01)
1.028784e-02	propellerTip	(-9.845526e+00 -1.749483e+01 -4.072087e+01)	(9.938219e+00 8.240971e+00 4.089314e+01)
1.036115e-02	propellerTip	(-9.930560e+00 -1.756563e+01 -4.171582e+01)	(9.972281e+00 8.281053e+00 4.135591e+01)
1.043444e-02	propellerTip	(-9.951838e+00 -1.757394e+01 -4.025549e+01)	(1.002685e+01 8.253580e+00 4.096620e+01)
1.050748e-02	propellerTip	(-9.993093e+00 -1.766903e+01 -4.079814e+01)	(1.007088e+01 8.237511e+00 4.055739e+01)
1.058130e-02	propellerTip	(-1.005130e+01 -1.775891e+01 -4.099558e+01)	(1.012014e+01 8.379268e+00 4.042088e+01)
1.065445e-02	propellerTip	(-1.013834e+01 -1.781076e+01 -4.321702e+01)	(1.015761e+01 8.311393e+00 4.031320e+01)
1.072786e-02	propellerTip	(-1.013577e+01 -1.806361e+01 -4.031368e+01)	(1.018843e+01 8.257888e+00 4.021687e+01)
1.080133e-02	propellerTip	(-1.022493e+01 -1.815440e+01 -4.068249e+01)	(1.026922e+01 8.321186e+00 4.018574e+01)
1.087458e-02	propellerTip	(-1.015881e+01 -1.807048e+01 -4.094787e+01)	(1.023075e+01 8.275904e+00 4.001015e+01)
1.094753e-02	propellerTip	(-1.014325e+01 -1.809224e+01 -4.017477e+01)	(1.021831e+01 8.223196e+00 3.997933e+01)
1.102087e-02	propellerTip	(-1.016265e+01 -1.811523e+01 -3.995525e+01)	(1.021255e+01 8.898340e+00 4.101557e+01)
1.109420e-02	propellerTip	(-1.007417e+01 -1.829718e+01 -4.058495e+01)	(1.020271e+01 8.187046e+00 3.987428e+01)
1.116729e-02	propellerTip	(-1.007625e+01 -1.807954e+01 -3.977254e+01)	(1.018002e+01 8.251035e+00 3.977817e+01)
1.123997e-02	propellerTip	(-1.005427e+01 -1.807240e+01 -3.959567e+01)	(1.015141e+01 8.224244e+00 3.980041e+01)
1.131338e-02	propellerTip	(-1.000061e+01 -1.809399e+01 -3.950141e+01)	(1.013054e+01 8.197170e+00 3.986284e+01)
1.138651e-02	propellerTip	(-9.940612e+00 -1.802614e+01 -3.943760e+01)	(1.008072e+01 8.184951e+00 3.969340e+01)
1.146013e-02	propellerTip	(-9.875611e+00 -1.800255e+01 -3.935554e+01)	(1.003427e+01 8.161222e+00 3.965803e+01)
1.153319e-02	propellerTip	(-9.811515e+00 -1.793093e+01 -3.934024e+01)	(9.965293e+00 8.150107e+00 3.962050e+01)
1.160736e-02	propellerTip	(-9.739647e+00 -1.787053e+01 -3.923512e+01)	(9.906036e+00 8.116843e+00 3.956705e+01)
1.168185e-02	propellerTip	(-9.660093e+00 -1.779482e+01 -3.912884e+01)	(9.833328e+00 8.088534e+00 3.951228e+01)
1.175605e-02	propellerTip	(-9.585426e+00 -1.772207e+01 -3.904698e+01)	(9.770802e+00 8.067658e+00 3.946426e+01)
1.183059e-02	propellerTip	(-9.520363e+00 -1.765285e+01 -3.894753e+01)	(9.711467e+00 8.046543e+00 3.940212e+01)
1.190497e-02	propellerTip	(-9.472923e+00 -1.759741e+01 -3.892427e+01)	(9.760634e+00 8.018149e+00 3.935369e+01)
1.198011e-02	propellerTip	(-9.434625e+00 -1.754036e+01 -3.884015e+01)	(9.621654e+00 8.000959e+00 3.926676e+01)
1.205500e-02	propellerTip	(-9.407718e+00 -1.748136e+01 -3.878318e+01)	(9.581917e+00 7.985893e+00 3.917843e+01)
1.213011e-02	propellerTip	(-9.384050e+00 -1.742781e+01 -3.870392e+01)	(9.546921e+00 7.970383e+00 3.908797e+01)
1.220561e-02	propellerTip	(-9.354862e+00 -1.736876e+01 -3.860792e+01)	(9.515068e+00 7.955007e+00 3.895211e+01)
1.228080e-02	propellerTip	(-9.317790e+00 -1.726891e+01 -3.848825e+01)	(9.458817e+00 7.934942e+00 3.885104e+01)
1.235610e-02	propellerTip	(-9.264054e+00 -1.718169e+01 -3.835399e+01)	(9.397353e+00 7.903487e+00 3.875243e+01)
1.243185e-02	propellerTip	(-9.181312e+00 -1.707216e+01 -3.819036e+01)	(9.348897e+00 7.868681e+00 3.863300e+01)
1.250787e-02	propellerTip	(-9.077075e+00 -1.694778e+01 -3.806536e+01)	(9.244855e+00 7.828017e+00 3.852425e+01)
1.258417e-02	propellerTip	(-8.958326e+00 -1.680937e+01 -3.794158e+01)	(9.159570e+00 7.784002e+00 3.840280e+01)
1.266080e-02	propellerTip	(-8.872765e+00 -1.666939e+01 -3.782528e+01)	(9.063672e+00 7.745860e+00 3.828099e+01)
1.273778e-02	propellerTip	(-8.712937e+00 -1.652896e+01 -3.772311e+01)	(8.961522e+00 7.707615e+00 3.816245e+01)
1.281506e-02	propellerTip	(-8.612882e+00 -1.641002e+01 -3.764474e+01)	(8.864367e+00 7.674124e+00 3.806739e+01)
1.289257e-02	propellerTip	(-8.518720e+00 -1.632682e+01 -3.758959e+01)	(8.780899e+00 7.646069e+00 3.799610e+01)
1.297021e-02	propellerTip	(-8.461672e+00 -1.629357e+01 -3.756813e+01)	(8.723218e+00 7.624827e+00 3.796205e+01)
1.304814e-02	propellerTip	(-8.436280e+00 -1.631444e+01 -3.759238e+01)	(8.694862e+00 7.617750e+00 3.795985e+01)
1.312561e-02	propellerTip	(-8.841449e+00 -1.639021e+01 -3.765835e+01)	(8.692307e+00 7.621642e+00 3.846380e+01)
1.320321e-02	propellerTip	(-8.479903e+00 -1.650575e+01 -3.775960e+01)	(8.713822e+00 7.635375e+00 3.811311e+01)
1.328020e-02	propellerTip	(-8.526596e+00 -1.664634e+01 -3.789176e+01)	(8.743267e+00 7.660283e+00 3.825257e+01)
1.335672e-02	propellerTip	(-8.576084e+00 -1.679527e+01 -3.804631e+01)	(8.779373e+00 7.688718e+00 3.842342e+01)
1.343294e-02	propellerTip	(-8.622328e+00 -1.693469e+01 -3.821969e+01)	(8.809225e+00 7.720862e+00 3.858150e+01)
1.350882e-02	propellerTip	(-8.660985e+00 -1.706097e+01 -3.843240e+01)	(8.830048e+00 7.752501e+00 3.876054e+01)
1.358414e-02	propellerTip	(-8.680886e+00 -1.716194e+01 -3.859718e+01)	(8.841027e+00 7.777952e+00 3.890461e+01)
1.365925e-02	propellerTip	(-8.687622e+00 -1.723511e+01 -3.874012e+01)	(8.827450e+00 7.804663e+00 3.906190e+01)
1.373367e-02	propellerTip	(-8.682865e+00 -1.728058e+01 -3.886863e+01)	(8.859303e+00 7.826214e+00 3.919507e+01)
1.380803e-02	propellerTip	(-8.661683e+00 -1.729626e+01 -3.897439e+01)	(8.769126e+00 7.844370e+00 3.931120e+01)
1.388231e-02	propellerTip	(-8.625065e+00 -1.729086e+01 -3.905397e+01)	(8.729735e+00 7.856014e+00 3.940754e+01)
1.395675e-02	propellerTip	(-8.580601e+00 -1.726670e+01 -3.910390e+01)	(8.678332e+00 7.862208e+00 3.946898e+01)
1.403093e-02	propellerTip	(-8.529375e+00 -1.723117e+01 -3.913301e+01)	(8.620521e+00 7.869080e+00 3.951629e+01)
1.410514e-02	propellerTip	(-8.514665e+00 -1.717804e+01 -3.912627e+01)	(8.568838e+00 7.868907e+00 3.954205e+01)
1.417941e-02	propellerTip	(-8.540144e+00 -1.712044e+01 -3.909471e+01)	(8.493051e+00 7.869595e+00 3.955942e+01)
1.425374e-02	propellerTip	(-8.563247e+00 -1.705769e+01 -3.905683e+01)	(8.430995e+00 7.865818e+00 3.956308e+01)
1.432815e-02	propellerTip	(-8.586696e+00 -1.699437e+01 -3.902939e+01)	(8.369271e+00 7.855451e+00 3.955026e+01)
1.440264e-02	propellerTip	(-8.606693e+00 -1.693427e+01 -3.902372e+01)	(8.312452e+00 7.847779e+00 3.951329e+01)
1.447724e-02	propellerTip	(-8.618247e+00 -1.687578e+01 -3.900381e+01)	(8.274640e+00 7.836061e+00 3.946093e+01)
1.455193e-02	propellerTip	(-8.622734e+00 -1.682047e+01 -3.899921e+01)	(8.282943e+00 7.830674e+00 3.940783e+01)
1.462673e-02	propellerTip	(-8.614872e+00 -1.676584e+01 -3.900762e+01)	(8.290165e+00 7.825750e+00 3.935798e+01)
1.470165e-02	propellerTip	(-8.613017e+00 -1.671306e+01 -3.902532e+01)	(8.309778e+00 7.820955e+00 3.931708e+01)
1.477671e-02	propellerTip	(-8.613963e+00 -1.666751e+01 -3.904806e+01)	(8.326860e+00 7.816083e+00 3.928301e+01)
1.485181e-02	propellerTip	(-8.605231e+00 -1.661322e+01 -3.906068e+01)	(8.353945e+00 7.810779e+00 3.924093e+01)
1.492649e-02	propellerTip	(-8.591189e+00 -1.655694e+01 -3.910237e+01)	(8.374883e+00 7.805904e+00 3.920254e+01)
1.500150e-02	propellerTip	(-8.572228e+00 -1.650578e+01 -3.914643e+01)	(8.395363e+00 7.800432e+00 3.918381e+01)
1.507653e-02	propellerTip	(-8.553109e+00 -1.649502e+01 -3.921241e+01)	(8.424276e+00 7.797705e+00 3.918699e+01)
1.515147e-02	propellerTip	(-8.543080e+00 -1.649221e+01 -3.928484e+01)	(8.463896e+00 7.799775e+00 3.920744e+01)
1.522632e-02	propellerTip	(-8.540466e+00 -1.649514e+01 -3.936006e+01)	(8.497903e+00 7.802608e+00 3.923789e+01)
1.530110e-02	propellerTip	(-8.544410e+00 -1.650075e+01 -3.943745e+01)	(8.535085e+00 7.807623e+00 3.928023e+01)
1.537578e-02	propellerTip	(-8.548989e+00 -1.650973e+01 -3.950860e+01)	(8.575936e+00 7.814296e+00 3.933865e+01)
1.545037e-02	propellerTip	(-8.571064e+00 -1.651888e+01 -3.957382e+01)	(8.603608e+00 7.821116e+00 3.939884e+01)
1.552485e-02	propellerTip	(-8.603839e+00 -1.652697e+01 -3.963554e+01)	(8.631760e+00 7.825501e+00 3.947505e+01)
1.559923e-02	propellerTip	(-8.624629e+00 -1.653693e+01 -3.969535e+01)	(8.658517e+00 7.832519e+00 3.954730e+01)
1.567350e-02	propellerTip	(-8.653089e+00 -1.654774e+01 -3.975737e+01)	(8.683911e+00 7.837626e+00 3.961701e+01)
1.574768e-02	propellerTip	(-8.687401e+00 -1.656260e+01 -3.982336e+01)	(8.709025e+00 7.844260e+00 3.968527e+01)
1.582177e-02	propellerTip	(-8.708614e+00 -1.658388e+01 -3.988595e+01)	(8.738755e+00 7.849096e+00 3.975500e+01)
1.589580e-02	propellerTip	(-8.741129e+00 -1.660652e+01 -3.994683e+01)	(8.785941e+00 7.855644e+00 3.979714e+01)
1.596969e-02	propellerTip	(-8.764945e+00 -1.663205e+01 -3.999788e+01)	(8.797884e+00 7.865051e+00 3.983907e+01)
1.604351e-02	propellerTip	(-8.795533e+00 -1.665943e+01 -4.004093e+01)	(8.821631e+00 7.869488e+00 3.987543e+01)
1.611727e-02	propellerTip	(-8.821260e+00 -1.668621e+01 -4.007280e+01)	(8.843815e+00 7.875987e+00 3.989895e+01)
1.619098e-02	propellerTip	(-8.865705e+00 -1.670996e+01 -4.009527e+01)	(8.857651e+00 7.878689e+00 3.990862e+01)
1.626463e-02	propellerTip	(-8.852812e+00 -1.673726e+01 -4.012793e+01)	(8.867534e+00 7.883167e+00 3.991202e+01)
1.633815e-02	propellerTip	(-8.851905e+00 -1.675401e+01 -4.012346e+01)	(8.880257e+00 7.885472e+00 3.989963e+01)
1.641169e-02	propellerTip	(-8.845513e+00 -1.677398e+01 -4.012414e+01)	(8.892002e+00 7.888445e+00 3.988721e+01)
1.648543e-02	propellerTip	(-8.838604e+00 -1.678667e+01 -4.012574e+01)	(8.903451e+00 7.889896e+00 3.986616e+01)
1.655926e-02	propellerTip	(-8.837511e+00 -1.679081e+01 -4.010039e+01)	(8.905880e+00 7.889092e+00 3.985211e+01)
1.663273e-02	propellerTip	(-8.839937e+00 -1.679292e+01 -4.007901e+01)	(8.919178e+00 7.888243e+00 3.984559e+01)
1.670593e-02	propellerTip	(-8.847370e+00 -1.677311e+01 -4.002875e+01)	(8.890172e+00 7.882565e+00 3.982499e+01)
1.677931e-02	propellerTip	(-8.852064e+00 -1.676424e+01 -3.998614e+01)	(8.875863e+00 7.875130e+00 3.979528e+01)
1.685306e-02	propellerTip	(-8.852095e+00 -1.674929e+01 -3.993634e+01)	(8.865685e+00 7.867869e+00 3.975491e+01)
1.692698e-02	propellerTip	(-8.846296e+00 -1.673348e+01 -3.987553e+01)	(8.854890e+00 7.859863e+00 3.969975e+01)
1.700102e-02	propellerTip	(-8.833251e+00 -1.671730e+01 -3.981396e+01)	(9.575924e+00 7.853880e+00 3.963380e+01)
1.707512e-02	propellerTip	(-8.806202e+00 -1.669538e+01 -3.973821e+01)	(8.820060e+00 7.847619e+00 3.955820e+01)
1.714931e-02	propellerTip	(-8.773579e+00 -1.667633e+01 -3.966935e+01)	(8.788442e+00 7.836994e+00 3.948356e+01)
1.722358e-02	propellerTip	(-8.739203e+00 -1.665728e+01 -3.959848e+01)	(8.758151e+00 7.829831e+00 3.941427e+01)
1.729792e-02	propellerTip	(-8.706882e+00 -1.663926e+01 -3.953420e+01)	(8.727666e+00 7.819989e+00 3.934558e+01)
1.737232e-02	propellerTip	(-8.670226e+00 -1.662893e+01 -3.949882e+01)	(8.685736e+00 7.813041e+00 3.930372e+01)
1.744674e-02	propellerTip	(-8.650016e+00 -1.660814e+01 -3.944278e+01)	(8.665642e+00 7.803498e+00 3.926482e+01)
1.752120e-02	propellerTip	(-8.634524e+00 -1.658858e+01 -3.939342e+01)	(8.643042e+00 7.797860e+00 3.921791e+01)
1.759569e-02	propellerTip	(-8.613431e+00 -1.656688e+01 -3.934768e+01)	(8.620969e+00 7.792371e+00 3.917220e+01)
1.767024e-02	propellerTip	(-8.586914e+00 -1.654374e+01 -3.930420e+01)	(8.599066e+00 7.785829e+00 3.913002e+01)
1.774481e-02	propellerTip	(-8.559453e+00 -1.651158e+01 -3.926397e+01)	(8.576249e+00 7.782466e+00 3.908931e+01)
1.781940e-02	propellerTip	(-8.527360e+00 -1.647556e+01 -3.923027e+01)	(8.542496e+00 7.774337e+00 3.906479e+01)
1.789399e-02	propellerTip	(-8.498080e+00 -1.643532e+01 -3.920651e+01)	(8.509371e+00 7.768556e+00 3.906492e+01)
1.796858e-02	propellerTip	(-8.477163e+00 -1.639345e+01 -3.919310e+01)	(8.482524e+00 7.763328e+00 3.907218e+01)
1.804314e-02	propellerTip	(-8.472753e+00 -1.635454e+01 -3.919028e+01)	(8.458963e+00 7.758609e+00 3.908637e+01)
1.811766e-02	propellerTip	(-8.473843e+00 -1.631549e+01 -3.919280e+01)	(8.440588e+00 7.754095e+00 3.910422e+01)
1.819224e-02	propellerTip	(-8.470262e+00 -1.627973e+01 -3.919606e+01)	(8.426154e+00 7.751371e+00 3.912141e+01)
1.826655e-02	propellerTip	(-8.467454e+00 -1.625082e+01 -3.922560e+01)	(8.423806e+00 7.748696e+00 3.913871e+01)
1.834092e-02	propellerTip	(-8.462070e+00 -1.622249e+01 -3.924186e+01)	(8.428845e+00 7.748351e+00 3.915744e+01)
1.841530e-02	propellerTip	(-8.458954e+00 -1.619786e+01 -3.927096e+01)	(8.423312e+00 7.750129e+00 3.918306e+01)
1.848963e-02	propellerTip	(-8.457299e+00 -1.618646e+01 -3.930031e+01)	(8.435216e+00 7.753612e+00 3.921824e+01)
1.856391e-02	propellerTip	(-8.463028e+00 -1.618520e+01 -3.935610e+01)	(8.452894e+00 7.760381e+00 3.926243e+01)
1.863808e-02	propellerTip	(-8.475971e+00 -1.617874e+01 -3.940548e+01)	(8.465894e+00 7.761867e+00 3.931265e+01)
1.871138e-02	propellerTip	(-8.493307e+00 -1.617675e+01 -3.943937e+01)	(8.461016e+00 7.772744e+00 3.936969e+01)
1.878506e-02	propellerTip	(-8.500324e+00 -1.618644e+01 -3.946374e+01)	(8.462549e+00 7.778208e+00 3.941426e+01)
1.885902e-02	propellerTip	(-8.511586e+00 -1.619444e+01 -3.950147e+01)	(8.462425e+00 7.785503e+00 3.946365e+01)
1.893294e-02	propellerTip	(-8.525090e+00 -1.620634e+01 -3.954954e+01)	(8.464215e+00 7.793301e+00 3.950786e+01)