# Probe 0 (0.128 0.01 0.01)
# Time        0            
0             (0 0 0)      
2.00323e-05   (-9.60713 -2.76617 -4.93545)
2.20667e-05   (-8.71223 -2.22874 -4.41881)
2.70571e-05   (-8.49089 -2.15721 -4.02222)
3.75473e-05   (-8.60154 -2.25143 -3.43989)
6.1006e-05    (-8.93841 -2.47218 -2.22945)
0.00010428    (-9.07913 -2.78159 -0.189531)
0.000161728   (-8.62278 -2.36224 1.7596)
0.00023112    (-7.2297 -0.789591 2.49157)
0.000296967   (-5.77423 0.0464616 2.25013)
0.000354394   (-5.01838 0.229298 1.86332)
0.000404751   (-4.66837 0.249212 1.55417)
0.000455545   (-4.45894 0.223687 1.28935)
0.000509482   (-4.3084 0.174481 1.07124)
0.000568041   (-4.18124 0.120824 0.898991)
0.000629341   (-4.06612 0.0747232 0.769693)
0.000692227   (-3.96024 0.0373543 0.675793)
0.000756424   (-3.86027 0.00725152 0.610054)
0.000821157   (-3.76401 -0.0178904 0.566006)
0.000885185   (-3.67077 -0.0400553 0.540187)
0.000947867   (-3.58028 -0.0583281 0.52806)
0.00100935    (-3.49313 -0.0724172 0.525509)
0.00107       (-3.40966 -0.0819787 0.527741)
0.00112997    (-3.33067 -0.0874676 0.529943)
0.00118907    (-3.25719 -0.0904999 0.52926)
0.0012476     (-3.18927 -0.0926618 0.52473)
0.00130603    (-3.12596 -0.0952136 0.516482)
0.0013638     (-3.06762 -0.0990252 0.505311)
0.00142165    (-3.01238 -0.104917 0.492148)
0.00147974    (-2.95932 -0.112107 0.478008)
0.00153825    (-2.90779 -0.119434 0.46335)
0.0015975     (-2.85765 -0.125345 0.448358)
0.00165712    (-2.80933 -0.127841 0.432963)
0.00171651    (-2.76325 -0.125635 0.417353)
0.00177628    (-2.71875 -0.118163 0.401002)
0.00183675    (-2.67544 -0.105122 0.382964)
0.00189795    (-2.63437 -0.0864524 0.362153)
0.00196       (-2.59704 -0.0629586 0.338381)
0.0020229     (-2.56509 -0.0352639 0.312005)
0.0020865     (-2.54058 -0.0039383 0.283016)
0.00215053    (-2.52424 0.0299042 0.252195)
0.00221471    (-2.51602 0.0645728 0.220005)
0.00227888    (-2.5143 0.0987156 0.187687)
0.00234295    (-2.51754 0.130238 0.157536)
0.00240673    (-2.52358 0.157063 0.131218)
0.00246999    (-2.53161 0.180866 0.109982)
0.002533      (-2.54283 0.201953 0.0923686)
0.00259588    (-2.55816 0.221258 0.0778409)
0.00265844    (-2.57768 0.238138 0.0677149)
0.00272041    (-2.60115 0.254507 0.0609255)
0.00278179    (-2.62712 0.268187 0.0578033)
0.00284266    (-2.65385 0.279411 0.0584329)
0.00290313    (-2.68041 0.288593 0.0621221)
0.00296339    (-2.70596 0.295699 0.0679723)
0.00302347    (-2.73024 0.299867 0.0750794)
0.00308331    (-2.7528 0.299781 0.0829508)
0.00314282    (-2.77178 0.294112 0.0920238)
0.00320189    (-2.78571 0.282683 0.103246)
0.00326045    (-2.79368 0.268237 0.117378)
0.00331843    (-2.79635 0.25529 0.134897)
0.00337584    (-2.79658 0.251873 0.154158)
0.00343273    (-2.79931 0.269004 0.172013)
0.0034895     (-2.80992 0.315675 0.182141)
0.0035465     (-2.83106 0.398716 0.176561)
0.00360343    (-2.86415 0.517786 0.145371)
0.00366044    (-2.91073 0.664644 0.0803584)
0.00371769    (-2.9726 0.824668 -0.0259818)
0.00377555    (-3.04907 0.978094 -0.169293)
0.00383426    (-3.1349 1.10674 -0.343717)
0.0038939     (-3.2207 1.19624 -0.53543)
0.00395459    (-3.30614 1.24023 -0.723766)
0.00401601    (-3.40102 1.24152 -0.888868)
0.00407854    (-3.52079 1.20105 -1.01113)
0.00414185    (-3.68594 1.11998 -1.07063)
0.00420617    (-3.91945 1.0061 -1.04782)
0.00427217    (-4.23521 0.875388 -0.924742)
0.00433939    (-4.62519 0.760802 -0.707207)
0.00440746    (-5.06418 0.706341 -0.422496)
0.00447614    (-5.52046 0.742714 -0.120228)
0.00454527    (-5.95962 0.878761 0.149235)
0.00461472    (-6.343 1.10414 0.337227)
0.0046844     (-6.64458 1.3865 0.427419)
0.00475439    (-6.84865 1.68737 0.423054)
0.00482479    (-6.96542 1.97171 0.338787)
0.00489548    (-7.01834 2.21479 0.198449)
0.00496581    (-7.03272 2.39717 0.028024)
0.00503585    (-7.02883 2.51717 -0.149247)
0.00510574    (-7.01982 2.57886 -0.31742)
0.00517554    (-7.0114 2.59388 -0.46252)
0.00524534    (-7.00146 2.57335 -0.585112)
0.00531519    (-6.98791 2.53173 -0.681971)
0.00538515    (-6.96947 2.47844 -0.753907)
0.00545525    (-6.94656 2.42295 -0.802655)
0.00552552    (-6.92123 2.37033 -0.829677)
0.00559601    (-6.89652 2.32319 -0.835937)
0.00566675    (-6.87541 2.28253 -0.823329)
0.00573781    (-6.86025 2.2481 -0.793879)
0.00580919    (-6.85203 2.22044 -0.750133)
0.00588089    (-6.85211 2.20016 -0.695046)
0.00595288    (-6.86292 2.18562 -0.631531)
0.00602441    (-6.8865 2.17438 -0.562378)
0.00609522    (-6.92224 2.16589 -0.489462)
0.00616539    (-6.96939 2.15983 -0.415917)
0.00623515    (-7.02986 2.15492 -0.343825)
0.00630478    (-7.10431 2.14841 -0.272752)
0.00637452    (-7.19231 2.14156 -0.20875)
0.00644451    (-7.2918 2.13803 -0.154816)
0.00651479    (-7.40151 2.14336 -0.115226)
0.00658532    (-7.51728 2.16322 -0.0960069)
0.00665607    (-7.63475 2.20244 -0.102952)
0.00672704    (-7.74886 2.26223 -0.141534)
0.00679829    (-7.85304 2.34072 -0.21619)
0.00686985    (-7.94058 2.43766 -0.32819)
0.00694175    (-8.00799 2.54328 -0.469737)
0.00701396    (-8.05235 2.64536 -0.638361)
0.00708645    (-8.07266 2.7331 -0.821374)
0.00715918    (-8.07144 2.79891 -1.00706)
0.0072321     (-8.04297 2.83135 -1.18116)
0.00730521    (-7.99261 2.83081 -1.33602)
0.00737849    (-7.92308 2.79862 -1.46476)
0.00745192    (-7.83918 2.7419 -1.56578)
0.00752543    (-7.74678 2.6729 -1.64178)
0.00759896    (-7.65271 2.60234 -1.69784)
0.00767244    (-7.56332 2.5377 -1.73919)
0.00774587    (-7.48273 2.4804 -1.77029)
0.00781927    (-7.41238 2.42646 -1.79128)
0.00789265    (-7.3524 2.36792 -1.797)
0.00796604    (-7.30297 2.29491 -1.77928)
0.00803943    (-7.2652 2.19804 -1.72909)
0.0081128     (-7.24497 2.07215 -1.63927)
0.00818618    (-7.24933 1.91615 -1.50622)
0.00825956    (-7.28413 1.73678 -1.33495)
0.00833294    (-7.35506 1.55155 -1.13495)
0.00840634    (-7.47148 1.37635 -0.924715)
0.00847975    (-7.63433 1.22964 -0.717035)
0.00855319    (-7.83789 1.13506 -0.532828)
0.00862666    (-8.07005 1.1013 -0.393052)
0.00870019    (-8.32024 1.1343 -0.310005)
0.00877378    (-8.57147 1.23427 -0.294763)
0.00884743    (-8.80286 1.38854 -0.350615)
0.00892113    (-8.9957 1.58012 -0.467084)
0.00899491    (-9.1363 1.7863 -0.632547)
0.00906876    (-9.21724 1.98524 -0.82885)
0.00914255    (-9.23938 2.15611 -1.04164)
0.00921607    (-9.21334 2.28528 -1.24626)
0.00928935    (-9.14866 2.36651 -1.43349)
0.00936246    (-9.05395 2.40096 -1.59483)
0.00943546    (-8.94193 2.39101 -1.72536)
0.0095084     (-8.82215 2.34464 -1.8239)
0.00958133    (-8.70006 2.27202 -1.89169)
0.00965426    (-8.5805 2.18288 -1.93147)
0.00972723    (-8.46701 2.08694 -1.94683)
0.00980022    (-8.36106 1.99083 -1.94244)
0.00987324    (-8.26236 1.90224 -1.92388)
0.00994627    (-8.17034 1.82671 -1.89766)
0.0100193     (-8.08336 1.76697 -1.87026)
0.0100923     (-8.00021 1.725 -1.84721)
0.0101652     (-7.91937 1.70133 -1.83294)
0.010238      (-7.83899 1.69543 -1.83051)
0.0103107     (-7.75776 1.70557 -1.84133)
0.0103834     (-7.67496 1.72857 -1.86602)
0.0104559     (-7.59178 1.7606 -1.9049)
0.0105283     (-7.50906 1.7988 -1.95768)
0.0106006     (-7.42753 1.84009 -2.02303)
0.0106729     (-7.34815 1.88294 -2.09788)
0.010745      (-7.272 1.927 -2.17822)
0.0108172     (-7.20116 1.97163 -2.25972)
0.0108893     (-7.13822 2.01709 -2.33839)
0.0109614     (-7.08473 2.06328 -2.41126)
0.0110336     (-7.04145 2.10958 -2.47462)
0.0111058     (-7.00879 2.15447 -2.52621)
0.011178      (-6.98683 2.19629 -2.56598)
0.0112503     (-6.97348 2.23506 -2.59398)
0.0113226     (-6.97059 2.2719 -2.61091)
0.0113951     (-6.97925 2.30226 -2.61935)
0.0114677     (-6.99994 2.3248 -2.62248)
0.0115404     (-7.03306 2.33945 -2.62338)
0.0116134     (-7.07829 2.34799 -2.62505)
0.0116865     (-7.13313 2.35266 -2.62986)
0.0117599     (-7.19314 2.35565 -2.63986)
0.0118336     (-7.25264 2.35787 -2.65745)
0.0119076     (-7.30641 2.3595 -2.68503)
0.0119818     (-7.35099 2.35971 -2.72481)
0.0120564     (-7.38513 2.35635 -2.77761)
0.0121314     (-7.40905 2.3461 -2.84359)
0.0122066     (-7.42332 2.32647 -2.92282)
0.0122823     (-7.43046 2.29561 -3.01679)
0.0123583     (-7.43511 2.25256 -3.12686)
0.0124344     (-7.44261 2.19834 -3.2528)
0.0125106     (-7.45891 2.13668 -3.39338)
0.0125867     (-7.48824 2.07499 -3.546)
0.0126627     (-7.53138 2.02165 -3.70631)
0.0127388     (-7.58514 1.98497 -3.86945)
0.0128147     (-7.64369 1.97331 -4.03103)
0.0128906     (-7.70033 1.99273 -4.18833)
0.0129665     (-7.74777 2.04441 -4.33954)
0.0130424     (-7.77938 2.12376 -4.48471)
0.0131183     (-7.78891 2.22289 -4.62111)
0.0131942     (-7.77378 2.32941 -4.74389)
0.0132701     (-7.73635 2.42996 -4.84674)
0.0133459     (-7.68282 2.51288 -4.92187)
0.0134213     (-7.62053 2.57098 -4.96349)
0.0134964     (-7.55602 2.60149 -4.97058)
0.0135711     (-7.49404 2.60394 -4.94556)
0.0136457     (-7.43751 2.58124 -4.89142)
0.0137202     (-7.38814 2.53761 -4.81064)
0.0137946     (-7.34717 2.47762 -4.70612)
0.013869      (-7.31552 2.40737 -4.58225)
0.0139435     (-7.29415 2.33434 -4.44163)
0.0140181     (-7.28256 2.26415 -4.28407)
0.0140928     (-7.27949 2.20104 -4.11227)
0.0141676     (-7.28379 2.14793 -3.93165)
0.0142425     (-7.29373 2.10629 -3.74693)
0.0143176     (-7.30681 2.07656 -3.56205)
0.0143925     (-7.32085 2.05761 -3.38009)
0.0144674     (-7.33571 2.04745 -3.2029)
0.0145421     (-7.35349 2.04369 -3.03105)
0.0146167     (-7.3768 2.04332 -2.86305)
0.0146911     (-7.40777 2.04357 -2.69481)
0.0147654     (-7.44751 2.04357 -2.52266)
0.0148397     (-7.49536 2.04195 -2.34518)
0.0149138     (-7.54942 2.03792 -2.16305)
0.0149879     (-7.60778 2.03173 -1.97857)
0.0150619     (-7.66804 2.02394 -1.79428)
0.0151358     (-7.72855 2.01512 -1.61317)
0.0152095     (-7.78873 2.0053 -1.43848)
0.015283      (-7.84775 1.99383 -1.2723)
0.0153563     (-7.91046 1.9814 -1.11676)
0.0154294     (-7.97391 1.96728 -0.973669)
0.0155023     (-8.03482 1.94987 -0.845101)
0.015575      (-8.09428 1.93176 -0.729488)
0.0156474     (-8.1521 1.91336 -0.629455)
0.0157197     (-8.20837 1.89336 -0.545147)
0.0157919     (-8.2627 1.87165 -0.475569)
0.0158639     (-8.31366 1.84882 -0.419568)
0.0159357     (-8.36069 1.82574 -0.376405)
0.0160075     (-8.40196 1.8025 -0.345914)
0.0160792     (-8.43855 1.77898 -0.324856)
0.0161509     (-8.47045 1.7554 -0.312048)
0.0162225     (-8.49752 1.73129 -0.306351)
0.0162941     (-8.51979 1.70631 -0.306013)
0.0163657     (-8.53768 1.68007 -0.309829)
0.0164374     (-8.55184 1.65228 -0.317117)
0.016509      (-8.56287 1.62243 -0.327679)
0.0165807     (-8.57119 1.59061 -0.341191)
0.0166525     (-8.57724 1.55773 -0.35799)
0.0167243     (-8.58139 1.52382 -0.378574)
0.0167962     (-8.58402 1.4907 -0.4038)
0.0168681     (-8.58561 1.45852 -0.433489)
0.0169401     (-8.58601 1.4284 -0.466538)
0.0170122     (-8.58591 1.40148 -0.501743)
0.0170843     (-8.58521 1.37829 -0.537557)
0.0171565     (-8.58391 1.3591 -0.572267)
0.0172287     (-8.58193 1.34404 -0.603989)
0.017301      (-8.57905 1.33259 -0.631367)
0.0173732     (-8.5747 1.32339 -0.653522)
0.0174455     (-8.56861 1.31502 -0.670117)
0.0175179     (-8.56049 1.30627 -0.681124)
0.0175903     (-8.55024 1.29608 -0.687068)
0.0176627     (-8.53779 1.28369 -0.68912)
0.0177352     (-8.52315 1.26836 -0.688842)
0.0178077     (-8.50646 1.24951 -0.687629)
0.0178802     (-8.48787 1.22691 -0.686549)
0.0179527     (-8.46733 1.20098 -0.68653)
0.0180253     (-8.44474 1.17186 -0.688589)
0.0180979     (-8.42001 1.14026 -0.693513)
0.0181706     (-8.39306 1.10751 -0.70267)
0.0182434     (-8.36393 1.07521 -0.716793)
0.0183161     (-8.33304 1.04366 -0.735819)
0.0183889     (-8.3012 1.01392 -0.759088)
0.0184618     (-8.26885 0.98685 -0.785534)
0.0185346     (-8.23654 0.961991 -0.813749)
0.0186074     (-8.20439 0.939795 -0.842709)
0.0186803     (-8.17317 0.92002 -0.871271)
0.0187531     (-8.14291 0.902135 -0.898654)
0.0188258     (-8.11345 0.885662 -0.923413)
0.0188986     (-8.08462 0.869667 -0.945273)
0.0189713     (-8.05642 0.853795 -0.963288)
0.0190439     (-8.02901 0.838137 -0.977342)
0.0191165     (-8.00258 0.822094 -0.986661)
0.0191891     (-7.97702 0.805078 -0.990831)
0.0192615     (-7.95177 0.787426 -0.990368)
0.019334      (-7.92577 0.769437 -0.985967)
0.0194064     (-7.89913 0.751094 -0.978114)
0.0194788     (-7.87184 0.733372 -0.968004)
0.0195511     (-7.84467 0.716151 -0.955287)
0.0196235     (-7.81788 0.698607 -0.940169)
0.0196958     (-7.79176 0.680912 -0.922809)
0.019768      (-7.76663 0.663307 -0.9031)
0.0198403     (-7.74233 0.645855 -0.881366)
0.0199126     (-7.71852 0.628889 -0.85826)
0.0199848     (-7.69489 0.612298 -0.833976)
0.0200571     (-7.67126 0.595786 -0.80854)
0.0201293     (-7.64811 0.579518 -0.781844)
0.0202014     (-7.62619 0.563837 -0.753798)
0.0202735     (-7.60598 0.548319 -0.724575)
0.0203456     (-7.58726 0.532673 -0.694864)
0.0204175     (-7.56978 0.516766 -0.665159)
0.0204894     (-7.5534 0.50074 -0.635586)
0.0205612     (-7.53742 0.48452 -0.606404)
0.020633      (-7.52229 0.468013 -0.577439)
0.0207047     (-7.50785 0.451497 -0.54864)
0.0207763     (-7.49363 0.43543 -0.520856)
0.0208479     (-7.48043 0.418751 -0.493565)
0.0209195     (-7.46713 0.401971 -0.46712)
0.020991      (-7.45366 0.384285 -0.442169)
0.0210625     (-7.44031 0.36607 -0.420074)
0.021134      (-7.42762 0.347348 -0.399748)
0.0212055     (-7.41541 0.328626 -0.381246)
0.0212769     (-7.4033 0.310303 -0.364633)
0.0213482     (-7.39105 0.292784 -0.349973)
0.0214196     (-7.37862 0.276268 -0.337336)
0.0214909     (-7.36621 0.260949 -0.32601)
0.0215622     (-7.35409 0.246751 -0.316151)
0.0216334     (-7.34249 0.233563 -0.308071)
0.0217046     (-7.33162 0.221315 -0.301315)
0.0217758     (-7.3215 0.209872 -0.295559)
0.0218469     (-7.31203 0.199179 -0.290408)
0.0219181     (-7.30315 0.188958 -0.285553)
0.0219892     (-7.29483 0.179205 -0.280974)
0.0220604     (-7.287 0.169904 -0.276781)
0.0221315     (-7.2796 0.161132 -0.273062)
0.0222026     (-7.27264 0.152834 -0.269904)
0.0222738     (-7.26603 0.144917 -0.267488)
0.022345      (-7.25977 0.137378 -0.265921)
0.0224162     (-7.25385 0.130282 -0.265278)
0.0224874     (-7.24826 0.123705 -0.265654)
0.0225587     (-7.24299 0.117645 -0.267094)
0.02263       (-7.23803 0.112153 -0.26963)
0.0227013     (-7.23332 0.107278 -0.273267)
0.0227727     (-7.22885 0.103022 -0.278131)
0.0228441     (-7.22464 0.0994117 -0.28411)
0.0229155     (-7.2207 0.0965049 -0.291077)
0.022987      (-7.217 0.0942147 -0.298947)
0.0230585     (-7.21349 0.0924897 -0.307554)
0.02313       (-7.21012 0.0912954 -0.316713)
0.0232015     (-7.2069 0.0907622 -0.326105)
0.0232731     (-7.20377 0.0909282 -0.335516)
0.0233447     (-7.20068 0.0918158 -0.345831)
0.0234164     (-7.19746 0.0936286 -0.357007)
0.023488      (-7.19396 0.0962209 -0.368811)
0.0235597     (-7.19003 0.0988763 -0.381539)
0.0236314     (-7.18556 0.101891 -0.394964)
0.0237031     (-7.18045 0.105338 -0.408847)
0.0237748     (-7.17461 0.109254 -0.423057)
0.0238466     (-7.16811 0.11358 -0.437529)
0.0239183     (-7.16109 0.118198 -0.451967)
0.0239901     (-7.15348 0.123129 -0.466177)
0.0240619     (-7.14495 0.128171 -0.480169)
0.0241336     (-7.13581 0.133259 -0.493814)
0.0242054     (-7.12608 0.138376 -0.506991)
0.0242771     (-7.11579 0.143472 -0.519481)
0.0243489     (-7.10507 0.148568 -0.531006)
0.0244207     (-7.09403 0.153662 -0.541419)
0.0244924     (-7.08279 0.158595 -0.550625)
0.0245641     (-7.07145 0.163428 -0.558459)
0.0246359     (-7.06015 0.168082 -0.564741)
0.0247076     (-7.049 0.172435 -0.569329)
0.0247793     (-7.03798 0.176419 -0.572175)
0.0248509     (-7.02711 0.179983 -0.573332)
0.0249226     (-7.01647 0.183048 -0.572833)
0.0249942     (-7.00618 0.185666 -0.570622)
0.0250658     (-6.99635 0.18785 -0.566725)
0.0251374     (-6.98713 0.189575 -0.56118)
0.025209      (-6.97861 0.190703 -0.554035)
0.0252806     (-6.97077 0.191221 -0.545532)
0.0253521     (-6.96361 0.191092 -0.535934)
0.0254236     (-6.9571 0.19031 -0.525461)
0.0254951     (-6.95164 0.188962 -0.514098)
0.0255665     (-6.94678 0.187164 -0.502014)
0.0256379     (-6.94259 0.18496 -0.489328)
0.0257093     (-6.93926 0.182397 -0.476076)
0.0257807     (-6.93692 0.179493 -0.462423)
0.0258521     (-6.93559 0.176317 -0.448467)
0.0259234     (-6.9352 0.172906 -0.434313)
0.0259947     (-6.93564 0.169242 -0.420073)
0.026066      (-6.93677 0.165331 -0.405902)
0.0261372     (-6.93851 0.161197 -0.39193)
0.0262084     (-6.94076 0.156868 -0.378242)
0.0262796     (-6.94341 0.152326 -0.36492)
0.0263508     (-6.94648 0.147568 -0.352096)
0.026422      (-6.94995 0.142651 -0.340084)
0.0264932     (-6.95363 0.137512 -0.328406)
0.0265643     (-6.95752 0.132081 -0.316873)
0.0266354     (-6.96151 0.126999 -0.305754)
0.0267065     (-6.96552 0.12154 -0.295087)
0.0267777     (-6.96962 0.115812 -0.284821)
0.0268488     (-6.9737 0.110151 -0.275184)
0.0269199     (-6.97775 0.104668 -0.266091)
0.026991      (-6.98168 0.0992574 -0.257773)
0.0270621     (-6.9856 0.0938759 -0.250338)
0.0271332     (-6.9896 0.0885489 -0.243591)
0.0272043     (-6.99369 0.0833823 -0.237333)
0.0272754     (-6.99775 0.0784867 -0.231515)
0.0273465     (-7.00171 0.0739793 -0.226194)
0.0274176     (-7.00557 0.0699295 -0.221458)
0.0274888     (-7.00933 0.0663474 -0.217392)
0.0275599     (-7.01304 0.0632206 -0.214007)
0.0276311     (-7.01677 0.060533 -0.211346)
0.0277023     (-7.02047 0.0582891 -0.209381)
0.0277735     (-7.024 0.056559 -0.208102)
0.0278447     (-7.02721 0.055397 -0.207531)
0.0279159     (-7.03009 0.0547938 -0.207743)
0.0279871     (-7.03272 0.0547101 -0.208792)
0.0280584     (-7.03518 0.0550951 -0.210648)
0.0281296     (-7.03748 0.0559535 -0.213266)
0.0282009     (-7.03948 0.0573339 -0.216595)
0.0282722     (-7.04112 0.0592479 -0.220656)
0.0283435     (-7.04239 0.0616608 -0.225474)
0.0284148     (-7.04342 0.0645301 -0.231054)
0.0284861     (-7.0442 0.0678228 -0.237335)
0.0285574     (-7.04467 0.0715383 -0.244262)
0.0286288     (-7.04473 0.0757172 -0.251828)
0.0287001     (-7.04439 0.0802365 -0.259964)
0.0287715     (-7.04379 0.0849101 -0.268452)
0.0288428     (-7.04296 0.0900406 -0.277404)
0.0289142     (-7.04187 0.0956675 -0.286943)
0.0289856     (-7.04039 0.10166 -0.296974)
0.029057      (-7.03843 0.107905 -0.307472)
0.0291284     (-7.03606 0.114602 -0.317899)
0.0291998     (-7.03333 0.121683 -0.328084)
0.0292712     (-7.03024 0.128672 -0.337742)
0.0293426     (-7.02677 0.135716 -0.347606)
0.029414      (-7.0228 0.142893 -0.35751)
0.0294854     (-7.01841 0.150156 -0.367331)
0.0295568     (-7.01368 0.157436 -0.376993)
0.0296282     (-7.00873 0.164652 -0.386358)
0.0296996     (-7.0036 0.17174 -0.395278)
0.029771      (-6.99822 0.178708 -0.403664)
0.0298424     (-6.9925 0.18555 -0.411442)
0.0299138     (-6.98646 0.192302 -0.418696)
0.0299852     (-6.98028 0.198981 -0.425343)
0.0300566     (-6.97409 0.20551 -0.431225)
0.030128      (-6.96791 0.211818 -0.4362)
0.0301994     (-6.96172 0.217953 -0.440179)
0.0302707     (-6.95546 0.223952 -0.443145)
0.0303421     (-6.94923 0.229808 -0.445088)
0.0304134     (-6.94316 0.235449 -0.446061)
0.0304848     (-6.93741 0.24079 -0.446062)
0.0305561     (-6.932 0.245787 -0.445051)
0.0306274     (-6.92687 0.250485 -0.443063)
0.0306987     (-6.92194 0.254937 -0.440188)
0.03077       (-6.91724 0.259164 -0.436577)
0.0308413     (-6.91297 0.263101 -0.432304)
0.0309125     (-6.90921 0.26663 -0.427364)
0.0309838     (-6.90596 0.269771 -0.421753)
0.031055      (-6.9031 0.272594 -0.415504)
0.0311262     (-6.90058 0.275173 -0.408727)
0.0311974     (-6.89844 0.277511 -0.401568)
0.0312686     (-6.89679 0.279567 -0.394135)
0.0313398     (-6.89573 0.281307 -0.386458)
0.031411      (-6.89521 0.282771 -0.378565)
0.0314821     (-6.89514 0.284044 -0.370552)
0.0315533     (-6.89548 0.285191 -0.362477)
0.0316244     (-6.89618 0.286212 -0.354512)
0.0316955     (-6.89738 0.287072 -0.346796)
0.0317666     (-6.89908 0.287788 -0.339418)
0.0318377     (-6.90119 0.288398 -0.332167)
0.0319088     (-6.90365 0.288875 -0.324745)
0.0319799     (-6.90634 0.28929 -0.317534)
0.032051      (-6.9093 0.290039 -0.310354)
0.0321221     (-6.91265 0.290737 -0.303597)
0.0321932     (-6.9164 0.291463 -0.297185)
0.0322643     (-6.92044 0.292203 -0.291197)
0.0323353     (-6.9247 0.29291 -0.285351)
0.0324064     (-6.92914 0.293911 -0.279825)
0.0324775     (-6.9337 0.295091 -0.274658)
0.0325486     (-6.93842 0.296484 -0.26995)
0.0326197     (-6.94335 0.298032 -0.265756)
0.0326908     (-6.94844 0.299728 -0.262019)
0.0327619     (-6.95357 0.30163 -0.258738)
0.032833      (-6.95868 0.3038 -0.255925)
0.0329042     (-6.96378 0.306284 -0.253609)
0.0329753     (-6.96884 0.309108 -0.251816)
0.0330464     (-6.97385 0.312277 -0.250548)
0.0331176     (-6.97885 0.315756 -0.249819)
0.0331887     (-6.9839 0.319508 -0.249616)
0.0332599     (-6.989 0.323535 -0.249893)
0.0333311     (-6.99406 0.32787 -0.250624)
0.0334023     (-6.99901 0.332523 -0.251824)
0.0334735     (-7.00387 0.337488 -0.253549)
0.0335447     (-7.00865 0.342736 -0.255826)
0.033616      (-7.01337 0.348188 -0.258635)
0.0336872     (-7.01805 0.353782 -0.261898)
0.0337585     (-7.02267 0.359555 -0.265625)
0.0338298     (-7.02718 0.365328 -0.269659)
0.0339011     (-7.03154 0.371346 -0.274087)
0.0339724     (-7.03573 0.377533 -0.278925)
0.0340437     (-7.03969 0.383913 -0.28416)
0.0341151     (-7.04341 0.390462 -0.289757)
0.0341864     (-7.04686 0.397152 -0.295716)
0.0342578     (-7.05005 0.403942 -0.301767)
0.0343292     (-7.0529 0.411058 -0.308432)
0.0344006     (-7.05544 0.418354 -0.31559)
0.034472      (-7.05773 0.425751 -0.322617)
0.0345434     (-7.05979 0.433364 -0.329582)
0.0346149     (-7.06156 0.441006 -0.336261)
0.0346863     (-7.06308 0.448515 -0.342894)
0.0347578     (-7.06418 0.45592 -0.349708)
0.0348292     (-7.06495 0.463021 -0.356494)
0.0349007     (-7.06539 0.470781 -0.363399)
0.0349722     (-7.06548 0.478526 -0.37041)
0.0350437     (-7.06525 0.486056 -0.377234)
0.0351152     (-7.06465 0.493408 -0.383802)
0.0351867     (-7.06368 0.500565 -0.390115)
0.0352582     (-7.06238 0.507497 -0.396134)
0.0353297     (-7.0608 0.514157 -0.401817)
0.0354012     (-7.05896 0.520539 -0.407129)
0.0354727     (-7.05686 0.526651 -0.412037)
0.0355442     (-7.05452 0.532496 -0.416503)
0.0356157     (-7.05198 0.538054 -0.420496)
0.0356871     (-7.04925 0.543302 -0.423982)
0.0357586     (-7.04637 0.548242 -0.426932)
0.0358301     (-7.04334 0.552863 -0.429333)
0.0359016     (-7.04021 0.557154 -0.431151)
0.0359731     (-7.037 0.561132 -0.432359)
0.0360445     (-7.03373 0.564792 -0.432947)
0.036116      (-7.03042 0.568116 -0.432914)
0.0361874     (-7.02714 0.571101 -0.432265)
0.0362589     (-7.0239 0.573762 -0.431012)
0.0363303     (-7.02075 0.576105 -0.429179)
0.0364017     (-7.01768 0.578155 -0.426789)
0.0364732     (-7.01473 0.579933 -0.423859)
0.0365446     (-7.01191 0.58145 -0.420419)
0.036616      (-7.00927 0.582715 -0.416499)
0.0366874     (-7.00681 0.583743 -0.412137)
0.0367588     (-7.00456 0.58456 -0.407388)
0.0368302     (-7.00252 0.585211 -0.402288)
0.0369015     (-7.00071 0.585702 -0.396886)
0.0369729     (-6.99915 0.586039 -0.391221)
0.0370443     (-6.99786 0.586229 -0.385342)
0.0371156     (-6.99682 0.586316 -0.37932)
0.037187      (-6.99603 0.586349 -0.373217)
0.0372583     (-6.99545 0.586316 -0.367079)
0.0373297     (-6.99513 0.586206 -0.360948)
0.037401      (-6.99506 0.586011 -0.354891)
0.0374724     (-6.99521 0.585758 -0.348992)
0.0375437     (-6.99557 0.58551 -0.34331)
0.037615      (-6.99613 0.585261 -0.337913)
0.0376864     (-6.9969 0.58507 -0.332292)
0.0377577     (-6.99785 0.584841 -0.326889)
0.0378291     (-6.99894 0.584943 -0.321614)
0.0379004     (-7.00018 0.585134 -0.316406)
0.0379717     (-7.00153 0.585429 -0.311573)
0.0380431     (-7.003 0.585899 -0.307094)
0.0381144     (-7.00455 0.586437 -0.30305)
0.0381858     (-7.00618 0.587115 -0.29947)
0.0382572     (-7.00786 0.588053 -0.296311)
0.0383285     (-7.00957 0.589189 -0.293652)
0.0383999     (-7.01128 0.590557 -0.291522)
0.0384713     (-7.01298 0.592167 -0.289941)
0.0385427     (-7.01465 0.594012 -0.288901)
0.0386141     (-7.01628 0.596087 -0.288367)
0.0386855     (-7.01786 0.598394 -0.288312)
0.0387569     (-7.01938 0.600942 -0.288701)
0.0388283     (-7.02081 0.603725 -0.289526)
0.0388998     (-7.02215 0.606742 -0.290829)
0.0389712     (-7.02338 0.609995 -0.292619)
0.0390427     (-7.02449 0.613483 -0.294894)
0.0391141     (-7.02543 0.61721 -0.297624)
0.0391856     (-7.02619 0.62122 -0.300735)
0.0392571     (-7.02678 0.625401 -0.304275)
0.0393286     (-7.02721 0.629749 -0.308212)
0.0394001     (-7.02748 0.634262 -0.312532)
0.0394716     (-7.02758 0.638998 -0.317193)
0.0395432     (-7.02754 0.643967 -0.321927)
0.0396147     (-7.02736 0.649052 -0.326864)
0.0396862     (-7.02705 0.654357 -0.331956)
0.0397578     (-7.0266 0.659832 -0.336887)
0.0398294     (-7.02598 0.665328 -0.341879)
0.0399009     (-7.02517 0.670837 -0.347118)
0.0399725     (-7.02418 0.676323 -0.352537)
0.0400441     (-7.02301 0.681862 -0.358059)
0.0401157     (-7.02169 0.687442 -0.363656)
0.0401873     (-7.02021 0.692998 -0.369273)
0.0402589     (-7.01857 0.698502 -0.37486)
0.0403305     (-7.01674 0.703934 -0.380343)
0.0404021     (-7.01471 0.709291 -0.385664)
0.0404738     (-7.01252 0.714556 -0.390783)
0.0405454     (-7.01015 0.71971 -0.395669)
0.0406171     (-7.00762 0.724743 -0.400307)
0.0406887     (-7.00495 0.729651 -0.40468)
0.0407604     (-7.00214 0.734412 -0.408769)
0.040832      (-6.99924 0.739009 -0.412552)
0.0409037     (-6.99628 0.743413 -0.41601)
0.0409753     (-6.99331 0.747607 -0.419124)
0.041047      (-6.99037 0.751568 -0.421866)
0.0411187     (-6.98749 0.755293 -0.424207)
0.0411904     (-6.98473 0.758782 -0.426097)
0.041262      (-6.98211 0.762044 -0.427485)
0.0413337     (-6.9796 0.765089 -0.428328)
0.0414054     (-6.97719 0.76792 -0.428609)
0.041477      (-6.97484 0.770564 -0.428339)
0.0415487     (-6.97243 0.773064 -0.427526)
0.0416204     (-6.97001 0.775408 -0.426261)
0.041692      (-6.96763 0.777556 -0.424599)
0.0417637     (-6.96528 0.779497 -0.42254)
0.0418353     (-6.96294 0.781243 -0.420074)
0.041907      (-6.96059 0.782816 -0.417224)
0.0419786     (-6.95821 0.784234 -0.413997)
0.0420503     (-6.95575 0.785538 -0.410438)
0.0421219     (-6.9532 0.786766 -0.406635)
0.0421935     (-6.95059 0.787933 -0.402667)
0.0422652     (-6.94798 0.789033 -0.398598)
0.0423368     (-6.94542 0.79007 -0.394452)
0.0424084     (-6.94296 0.791044 -0.390249)
0.04248       (-6.94066 0.791945 -0.386033)
0.0425516     (-6.93856 0.792754 -0.381798)
0.0426232     (-6.93672 0.793464 -0.377547)
0.0426948     (-6.93515 0.794084 -0.373252)
0.0427664     (-6.93381 0.794672 -0.368964)
0.042838      (-6.93269 0.795253 -0.364764)
0.0429096     (-6.93186 0.795807 -0.360698)
0.0429812     (-6.93136 0.796327 -0.356789)
0.0430528     (-6.93116 0.796818 -0.35304)
0.0431244     (-6.93123 0.797308 -0.349481)
0.043196      (-6.93153 0.797823 -0.346136)
0.0432676     (-6.93207 0.798348 -0.343034)
0.0433392     (-6.93282 0.798884 -0.340174)
0.0434108     (-6.93375 0.799441 -0.337542)
0.0434824     (-6.9348 0.800072 -0.33489)
0.043554      (-6.9359 0.800771 -0.332469)
0.0436256     (-6.937 0.801632 -0.330289)
0.0436972     (-6.93808 0.802686 -0.328308)
0.0437689     (-6.9391 0.803855 -0.326612)
0.0438405     (-6.94004 0.805171 -0.325226)
0.0439121     (-6.94092 0.806654 -0.324179)
0.0439838     (-6.94175 0.808291 -0.323482)
0.0440554     (-6.94255 0.810084 -0.323132)
0.0441271     (-6.94331 0.812033 -0.323127)
0.0441987     (-6.94403 0.814137 -0.32346)
0.0442704     (-6.94476 0.816386 -0.324115)
0.0443421     (-6.94546 0.818778 -0.325078)
0.0444138     (-6.94616 0.82131 -0.326343)
0.0444855     (-6.94684 0.82397 -0.327899)
0.0445572     (-6.94752 0.826752 -0.329737)
0.0446289     (-6.94817 0.829641 -0.331835)
0.0447006     (-6.94878 0.832668 -0.334148)
0.0447724     (-6.94931 0.835868 -0.336455)
0.0448441     (-6.94978 0.839098 -0.338817)
0.0449158     (-6.95014 0.842411 -0.341367)
0.0449876     (-6.95038 0.845819 -0.344077)
0.0450593     (-6.95046 0.84931 -0.346961)
0.0451311     (-6.95031 0.852899 -0.350025)
0.0452029     (-6.9501 0.856535 -0.353233)
0.0452746     (-6.94986 0.860174 -0.356561)
0.0453464     (-6.94962 0.863792 -0.359982)
0.0454182     (-6.94936 0.867387 -0.363466)
0.04549       (-6.94908 0.870959 -0.366986)
0.0455618     (-6.94879 0.874497 -0.370499)
0.0456336     (-6.94848 0.878 -0.373981)
0.0457054     (-6.94815 0.881469 -0.377426)
0.0457772     (-6.94781 0.884888 -0.380805)
0.045849      (-6.94743 0.888247 -0.384091)
0.0459208     (-6.94701 0.891535 -0.387262)
0.0459926     (-6.94654 0.894742 -0.390303)
0.0460644     (-6.94602 0.897852 -0.393197)
0.0461362     (-6.94543 0.900856 -0.395921)
0.0462079     (-6.94476 0.903742 -0.398453)
0.0462797     (-6.94403 0.906507 -0.400776)
0.0463515     (-6.94322 0.909148 -0.402878)
0.0464233     (-6.94235 0.911658 -0.404744)
0.0464951     (-6.94142 0.914033 -0.406362)
0.0465669     (-6.94043 0.916269 -0.407721)
0.0466386     (-6.93939 0.918372 -0.408814)
0.0467104     (-6.93829 0.920336 -0.409634)
0.0467822     (-6.93716 0.922164 -0.410171)
0.046854      (-6.93599 0.923859 -0.410416)
0.0469257     (-6.93481 0.925423 -0.410361)
0.0469975     (-6.93361 0.926857 -0.41001)
0.0470692     (-6.93242 0.928164 -0.40937)
0.047141      (-6.93123 0.929345 -0.408452)
0.0472127     (-6.93005 0.930407 -0.407275)
0.0472845     (-6.92889 0.931359 -0.405856)
0.0473562     (-6.92776 0.932208 -0.40421)
0.0474279     (-6.92665 0.93295 -0.402349)
0.0474996     (-6.92557 0.933593 -0.400294)
0.0475714     (-6.92455 0.934122 -0.398038)
0.0476431     (-6.92358 0.93454 -0.395585)
0.0477148     (-6.92271 0.934859 -0.392957)
0.0477865     (-6.92193 0.935086 -0.390179)
0.0478582     (-6.92127 0.935236 -0.387284)
0.0479299     (-6.92071 0.93531 -0.384297)
0.0480016     (-6.92027 0.935319 -0.381251)
0.0480733     (-6.91995 0.935272 -0.378172)
0.048145      (-6.91975 0.935177 -0.375078)
0.0482167     (-6.91968 0.935041 -0.371989)
0.0482884     (-6.91974 0.934863 -0.368909)
0.0483601     (-6.91993 0.934655 -0.36585)
0.0484318     (-6.92023 0.934436 -0.362834)
0.0485034     (-6.92065 0.93422 -0.35988)
0.0485751     (-6.92118 0.934023 -0.357016)