# Forces      
# CofR        : (0.000000e+00 0.000000e+00 0.000000e+00)
# Time        forces(pressure viscous)	moments(pressure viscous)
0             	((2.664535e-15 -6.039613e-14 -1.598721e-14) (0.000000e+00 0.000000e+00 0.000000e+00)) ((7.524419e-06 -2.505057e-05 -4.544243e-05) (0.000000e+00 0.000000e+00 0.000000e+00))
1e-05         	((-3.318209e-04 1.107747e+02 5.270236e-02) (1.383643e-05 7.936046e-03 -3.177252e-05)) ((-1.428218e-03 -3.138440e+00 3.532388e-03) (-2.423741e-07 -7.462070e-04 8.992293e-07))
1.3495e-05    	((3.182921e-03 1.011127e+01 1.597084e-02) (1.201000e-05 7.105083e-03 -4.019086e-05)) ((-5.400971e-06 -2.560428e-01 5.116201e-03) (-2.146094e-07 -7.184935e-04 1.159949e-07))
1.73176e-05   	((2.833785e-03 9.738354e+00 1.256407e-02) (9.111892e-06 6.275553e-03 -4.295880e-05)) ((-5.038701e-06 -2.320820e-01 2.939141e-03) (-1.949644e-07 -6.466024e-04 -6.020979e-07))
2.12807e-05   	((2.142103e-03 9.728200e+00 8.851614e-03) (7.780721e-06 5.739742e-03 -4.652692e-05)) ((-8.156414e-06 -2.255645e-01 1.847229e-03) (-1.520626e-07 -5.813343e-04 -8.993737e-07))
2.53095e-05   	((1.838199e-03 9.719392e+00 8.013283e-03) (7.353585e-06 5.373698e-03 -5.012923e-05)) ((-1.125752e-05 -2.209901e-01 1.440246e-03) (-1.210764e-07 -5.222601e-04 -8.447140e-07))
2.93829e-05   	((1.744291e-03 9.731017e+00 8.825085e-03) (7.280232e-06 5.119048e-03 -5.298148e-05)) ((-2.209355e-05 -2.179841e-01 1.400609e-03) (-1.071534e-07 -4.684307e-04 -7.549803e-07))
3.35043e-05   	((1.761293e-03 9.737094e+00 6.063361e-03) (6.917779e-06 4.937824e-03 -5.654420e-05)) ((6.248006e-06 -2.153453e-01 1.203303e-03) (-1.023033e-07 -4.189050e-04 -7.018169e-07))
3.76806e-05   	((1.504425e-03 9.735315e+00 3.466169e-03) (6.565627e-06 4.808729e-03 -5.925071e-05)) ((3.724009e-05 -2.128850e-01 8.324824e-04) (-9.522809e-08 -3.733367e-04 -6.947294e-07))
4.19161e-05   	((1.412141e-03 9.732459e+00 3.799596e-03) (6.579974e-06 4.721573e-03 -6.167070e-05)) ((3.167448e-05 -2.106242e-01 6.994914e-04) (-1.008706e-07 -3.313881e-04 -5.789997e-07))
4.62146e-05   	((1.397663e-03 9.715802e+00 3.510110e-03) (6.639882e-06 4.664429e-03 -6.310686e-05)) ((4.164489e-05 -2.082924e-01 6.678261e-04) (-1.037407e-07 -2.926849e-04 -4.577672e-07))
5.05752e-05   	((1.439291e-03 9.705889e+00 3.466056e-03) (6.984504e-06 4.631085e-03 -6.418575e-05)) ((4.529252e-05 -2.063698e-01 7.080421e-04) (-1.175230e-07 -2.569567e-04 -2.962150e-07))
5.49965e-05   	((1.452177e-03 9.696156e+00 4.135402e-03) (7.601633e-06 4.616615e-03 -6.459384e-05)) ((3.956505e-05 -2.046096e-01 6.890301e-04) (-1.283939e-07 -2.238655e-04 -1.475394e-07))
5.9476e-05    	((1.548633e-03 9.692027e+00 6.638042e-03) (8.366828e-06 4.618052e-03 -6.463005e-05)) ((2.290264e-05 -2.031966e-01 9.075817e-04) (-1.327652e-07 -1.931517e-04 1.874236e-09))
6.40124e-05   	((1.550987e-03 9.681369e+00 5.660925e-03) (8.949458e-06 4.632764e-03 -6.465109e-05)) ((3.566615e-05 -2.017403e-01 8.990135e-04) (-1.308362e-07 -1.645048e-04 1.602673e-07))
6.86016e-05   	((1.442948e-03 9.686001e+00 4.572281e-03) (9.288998e-06 4.657901e-03 -6.466772e-05)) ((4.314523e-05 -2.008672e-01 7.187346e-04) (-1.237471e-07 -1.377311e-04 3.001628e-07))
7.32407e-05   	((1.439835e-03 9.702742e+00 5.536745e-03) (9.481969e-06 4.691275e-03 -6.449930e-05)) ((4.052796e-05 -2.004415e-01 7.085887e-04) (-1.178791e-07 -1.125903e-04 4.378389e-07))
7.79294e-05   	((1.640806e-03 9.720980e+00 5.683628e-03) (9.537651e-06 4.731420e-03 -6.424059e-05)) ((5.154840e-05 -2.000709e-01 8.621404e-04) (-1.126345e-07 -8.880430e-05 5.514052e-07))
8.26717e-05   	((1.501503e-03 9.736803e+00 5.181769e-03) (9.543064e-06 4.777529e-03 -6.397916e-05)) ((5.061991e-05 -1.996861e-01 6.617527e-04) (-1.036710e-07 -6.611372e-05 6.372091e-07))
8.74655e-05   	((1.638898e-03 9.747096e+00 6.256489e-03) (9.460769e-06 4.828306e-03 -6.391988e-05)) ((5.226149e-05 -1.991451e-01 7.789215e-04) (-9.299517e-08 -4.439055e-05 7.169431e-07))
9.23077e-05   	((1.591526e-03 9.750109e+00 5.704375e-03) (9.387033e-06 4.883474e-03 -6.403716e-05)) ((5.022586e-05 -1.983683e-01 7.077528e-04) (-8.344836e-08 -2.352732e-05 7.677305e-07))
9.71969e-05   	((1.662971e-03 9.752129e+00 6.249733e-03) (9.226099e-06 4.943052e-03 -6.443558e-05)) ((4.868901e-05 -1.976325e-01 7.257044e-04) (-7.272548e-08 -3.424681e-06 8.124326e-07))
0.000102132   	((1.572536e-03 9.754499e+00 5.763550e-03) (8.859483e-06 5.005853e-03 -6.507501e-05)) ((4.707887e-05 -1.969337e-01 5.923198e-04) (-6.763247e-08 1.601122e-05 8.248451e-07))
0.00010711    	((1.498553e-03 9.765612e+00 5.765969e-03) (8.459211e-06 5.071678e-03 -6.611976e-05)) ((4.335842e-05 -1.964818e-01 5.544942e-04) (-6.577786e-08 3.486243e-05 8.427900e-07))
0.000112132   	((1.665120e-03 9.774338e+00 7.180338e-03) (8.055692e-06 5.139874e-03 -6.737725e-05)) ((3.960956e-05 -1.960018e-01 6.960958e-04) (-6.423305e-08 5.323071e-05 8.768317e-07))
0.000117194   	((1.591862e-03 9.787401e+00 6.552935e-03) (7.618797e-06 5.210759e-03 -6.870252e-05)) ((3.722786e-05 -1.957012e-01 6.095159e-04) (-6.552202e-08 7.115276e-05 8.926429e-07))
0.000122296   	((1.595834e-03 9.810169e+00 6.387032e-03) (7.165457e-06 5.284016e-03 -7.009427e-05)) ((4.292343e-05 -1.956892e-01 5.906231e-04) (-6.693744e-08 8.867579e-05 9.178445e-07))
0.000127435   	((1.658640e-03 9.830079e+00 6.619476e-03) (6.590474e-06 5.359809e-03 -7.156293e-05)) ((4.217853e-05 -1.955751e-01 5.856496e-04) (-6.826311e-08 1.058330e-04 9.508465e-07))
0.00013261    	((1.758653e-03 9.848855e+00 7.317240e-03) (5.981282e-06 5.437729e-03 -7.336525e-05)) ((4.436753e-05 -1.954615e-01 6.665626e-04) (-6.816715e-08 1.226835e-04 9.940548e-07))
0.000137818   	((1.807637e-03 9.860828e+00 7.425068e-03) (5.393472e-06 5.516795e-03 -7.534262e-05)) ((4.624988e-05 -1.951465e-01 6.756475e-04) (-7.069640e-08 1.392979e-04 1.036135e-06))
0.000143059   	((1.796638e-03 9.872132e+00 7.268229e-03) (4.733246e-06 5.596680e-03 -7.714803e-05)) ((4.695227e-05 -1.948224e-01 6.440005e-04) (-7.540966e-08 1.557147e-04 1.060215e-06))
0.00014833    	((1.788674e-03 9.887058e+00 7.454233e-03) (4.041133e-06 5.677264e-03 -7.899596e-05)) ((4.387164e-05 -1.946129e-01 6.268168e-04) (-8.260290e-08 1.719719e-04 1.078091e-06))
0.00015363    	((1.853642e-03 9.898499e+00 7.811881e-03) (3.304161e-06 5.758644e-03 -8.090718e-05)) ((4.037127e-05 -1.943306e-01 6.201434e-04) (-9.225889e-08 1.880837e-04 1.087257e-06))
0.000158961   	((1.859646e-03 9.910058e+00 7.603503e-03) (2.681980e-06 5.840878e-03 -8.296803e-05)) ((3.928226e-05 -1.940870e-01 5.751046e-04) (-1.034848e-07 2.040572e-04 1.090977e-06))
0.000164321   	((1.880557e-03 9.924536e+00 7.596632e-03) (2.161559e-06 5.924020e-03 -8.505598e-05)) ((4.103983e-05 -1.939322e-01 5.741198e-04) (-1.131040e-07 2.199342e-04 1.104959e-06))
0.000169708   	((1.950264e-03 9.938179e+00 7.794388e-03) (1.854440e-06 6.008086e-03 -8.704017e-05)) ((4.377642e-05 -1.937821e-01 5.907705e-04) (-1.234743e-07 2.357013e-04 1.110828e-06))
0.000175122   	((1.956018e-03 9.950514e+00 7.603264e-03) (1.583701e-06 6.092564e-03 -8.877227e-05)) ((4.714708e-05 -1.936252e-01 5.848524e-04) (-1.337237e-07 2.513674e-04 1.107546e-06))
0.000180561   	((2.021350e-03 9.970031e+00 7.700837e-03) (1.381990e-06 6.177809e-03 -9.049925e-05)) ((5.293594e-05 -1.936702e-01 6.264746e-04) (-1.416824e-07 2.669885e-04 1.109069e-06))
0.000186024   	((1.979611e-03 9.987296e+00 7.241822e-03) (1.294454e-06 6.263765e-03 -9.213584e-05)) ((5.349409e-05 -1.936714e-01 5.925025e-04) (-1.487753e-07 2.825977e-04 1.111159e-06))
0.00019151    	((1.899236e-03 1.000779e+01 6.828948e-03) (1.283215e-06 6.350559e-03 -9.365719e-05)) ((4.504234e-05 -1.937553e-01 5.075361e-04) (-1.545528e-07 2.981599e-04 1.114100e-06))
0.000197018   	((2.041224e-03 1.002690e+01 7.238759e-03) (1.305288e-06 6.437739e-03 -9.508820e-05)) ((5.294743e-05 -1.938186e-01 5.747305e-04) (-1.599510e-07 3.136330e-04 1.117963e-06))
0.000202547   	((1.948620e-03 1.003754e+01 6.678683e-03) (1.368707e-06 6.524913e-03 -9.667578e-05)) ((5.088087e-05 -1.936410e-01 5.196563e-04) (-1.671780e-07 3.289824e-04 1.117383e-06))
0.000208095   	((2.082123e-03 1.005148e+01 7.023797e-03) (1.518526e-06 6.612207e-03 -9.833045e-05)) ((5.412330e-05 -1.935840e-01 5.494450e-04) (-1.750103e-07 3.442117e-04 1.114473e-06))
0.000213663   	((2.092421e-03 1.006455e+01 7.033031e-03) (1.647604e-06 6.700076e-03 -1.001811e-04)) ((5.344144e-05 -1.935088e-01 5.320291e-04) (-1.832123e-07 3.593360e-04 1.111127e-06))
0.000219249   	((2.222615e-03 1.007977e+01 7.455226e-03) (1.805396e-06 6.788274e-03 -1.022282e-04)) ((5.838205e-05 -1.935127e-01 5.592972e-04) (-1.917723e-07 3.743420e-04 1.113158e-06))
0.000224853   	((2.279316e-03 1.009105e+01 7.357450e-03) (2.034310e-06 6.876639e-03 -1.043592e-04)) ((6.453543e-05 -1.934104e-01 5.745423e-04) (-2.018935e-07 3.892372e-04 1.112868e-06))
0.000230473   	((2.240234e-03 1.010188e+01 7.117356e-03) (2.281226e-06 6.965352e-03 -1.065139e-04)) ((6.706682e-05 -1.933082e-01 5.627159e-04) (-2.109364e-07 4.040335e-04 1.119195e-06))
0.000236111   	((2.328088e-03 1.011590e+01 7.339295e-03) (2.491685e-06 7.054478e-03 -1.086402e-04)) ((6.537585e-05 -1.933023e-01 5.542309e-04) (-2.205027e-07 4.187475e-04 1.126301e-06))
0.000241763   	((2.344532e-03 1.012378e+01 7.237800e-03) (2.690938e-06 7.143622e-03 -1.107962e-04)) ((6.742007e-05 -1.931673e-01 5.435119e-04) (-2.295206e-07 4.333557e-04 1.141759e-06))
0.000247429   	((2.413860e-03 1.013325e+01 7.482445e-03) (2.854306e-06 7.233127e-03 -1.131933e-04)) ((7.088292e-05 -1.930785e-01 5.622642e-04) (-2.366885e-07 4.478700e-04 1.168855e-06))
0.000253108   	((2.431421e-03 1.014390e+01 7.470674e-03) (3.041169e-06 7.322726e-03 -1.157896e-04)) ((7.110487e-05 -1.930332e-01 5.521272e-04) (-2.419240e-07 4.623021e-04 1.205254e-06))
0.000258799   	((2.520183e-03 1.015413e+01 7.733037e-03) (3.187473e-06 7.412366e-03 -1.184729e-04)) ((7.861346e-05 -1.929840e-01 5.925521e-04) (-2.451864e-07 4.766415e-04 1.250844e-06))
0.000264502   	((2.549287e-03 1.016441e+01 7.629132e-03) (3.335871e-06 7.502166e-03 -1.211511e-04)) ((7.685536e-05 -1.929475e-01 5.700700e-04) (-2.482234e-07 4.908972e-04 1.295541e-06))
0.000270217   	((2.490034e-03 1.017338e+01 7.450419e-03) (3.475529e-06 7.592162e-03 -1.239719e-04)) ((7.107003e-05 -1.928803e-01 5.279649e-04) (-2.518779e-07 5.050788e-04 1.336605e-06))
0.000275944   	((2.505794e-03 1.018172e+01 7.354873e-03) (3.664064e-06 7.682692e-03 -1.268757e-04)) ((7.035900e-05 -1.928036e-01 5.165062e-04) (-2.540082e-07 5.192069e-04 1.384926e-06))
0.000281682   	((2.618059e-03 1.019000e+01 7.639408e-03) (3.851384e-06 7.773376e-03 -1.299985e-04)) ((8.204415e-05 -1.927455e-01 5.603761e-04) (-2.590171e-07 5.333157e-04 1.422774e-06))
0.000287431   	((2.711081e-03 1.019936e+01 7.836017e-03) (4.038225e-06 7.864538e-03 -1.334131e-04)) ((7.881451e-05 -1.927198e-01 5.481059e-04) (-2.555299e-07 5.475127e-04 1.487968e-06))
0.00029319    	((2.668290e-03 1.020848e+01 7.622636e-03) (4.209579e-06 7.956151e-03 -1.371092e-04)) ((7.502775e-05 -1.927018e-01 5.249266e-04) (-2.521579e-07 5.617702e-04 1.552665e-06))
0.000298958   	((2.645312e-03 1.022013e+01 7.501008e-03) (4.461507e-06 8.048293e-03 -1.409738e-04)) ((7.374392e-05 -1.927729e-01 5.089818e-04) (-2.463868e-07 5.760864e-04 1.623623e-06))
0.000304735   	((2.597975e-03 1.022756e+01 7.365400e-03) (4.671870e-06 8.140930e-03 -1.449477e-04)) ((6.744551e-05 -1.927127e-01 4.756760e-04) (-2.397800e-07 5.904848e-04 1.695606e-06))
0.00031052    	((2.309949e-03 1.023739e+01 6.630868e-03) (4.715365e-06 8.234277e-03 -1.485768e-04)) ((3.560165e-05 -1.927246e-01 3.757847e-04) (-2.346424e-07 6.049402e-04 1.761236e-06))
0.000316311   	((2.417240e-03 1.024448e+01 6.718041e-03) (5.040753e-06 8.327811e-03 -1.528110e-04)) ((4.522869e-05 -1.926866e-01 3.874292e-04) (-2.241883e-07 6.193856e-04 1.847121e-06))
0.000322107   	((2.928073e-03 1.025049e+01 7.863473e-03) (5.885714e-06 8.422062e-03 -1.568768e-04)) ((9.614314e-05 -1.926335e-01 5.457867e-04) (-2.096723e-07 6.339025e-04 1.945471e-06))
0.000327909   	((2.684798e-03 1.025878e+01 7.264948e-03) (6.408360e-06 8.516247e-03 -1.616210e-04)) ((5.424676e-05 -1.926364e-01 4.059414e-04) (-2.028651e-07 6.483001e-04 2.025875e-06))
0.000333715   	((2.913027e-03 1.026452e+01 7.501944e-03) (6.590417e-06 8.610861e-03 -1.681700e-04)) ((9.029774e-05 -1.926060e-01 5.040218e-04) (-1.711729e-07 6.626587e-04 2.186091e-06))
0.000339525   	((1.770270e-03 1.028495e+01 5.241287e-03) (7.175538e-06 8.705946e-03 -1.728981e-04)) ((-8.257148e-05 -1.928946e-01 -1.034707e-05) (-1.606787e-07 6.770183e-04 2.271182e-06))
0.000345339   	((2.127407e-03 1.029175e+01 5.776427e-03) (7.329811e-06 8.798823e-03 -1.797124e-04)) ((-3.769274e-05 -1.928862e-01 1.021824e-04) (-1.300181e-07 6.911083e-04 2.432830e-06))
0.000351156   	((5.816700e-03 1.030732e+01 1.317867e-02) (8.413164e-06 8.892553e-03 -1.871111e-04)) ((4.442179e-04 -1.931074e-01 1.558532e-03) (-4.655923e-08 7.050512e-04 2.716751e-06))
0.000356977   	((4.392927e-03 1.031340e+01 1.009320e-02) (9.183634e-06 8.984044e-03 -1.936850e-04)) ((2.614045e-04 -1.931307e-01 9.740016e-04) (-8.076033e-08 7.187105e-04 2.699234e-06))
0.0003628     	((5.384512e-03 1.031872e+01 1.248829e-02) (1.053008e-05 9.072740e-03 -2.004458e-04)) ((4.097807e-04 -1.931074e-01 1.395859e-03) (-3.405809e-08 7.321066e-04 2.874783e-06))
0.000368627   	((-4.290878e-04 1.034913e+01 7.609210e-06) (9.550421e-06 9.168155e-03 -2.104718e-04)) ((-2.440122e-04 -1.937559e-01 -4.870581e-04) (-1.594676e-07 7.455323e-04 2.707198e-06))
0.000374455   	((9.680407e-03 1.037179e+01 1.942860e-02) (1.157944e-05 9.249351e-03 -2.137475e-04)) ((8.823079e-04 -1.940772e-01 2.570083e-03) (-4.019482e-07 7.589637e-04 2.174244e-06))
0.000380286   	((-2.424276e-03 1.040189e+01 -1.276151e-03) (1.133058e-05 9.352384e-03 -2.202518e-04)) ((-6.816469e-04 -1.946758e-01 -1.720257e-03) (-3.729540e-07 7.723256e-04 2.326325e-06))
0.000386119   	((-5.534428e-03 1.037590e+01 -8.791902e-03) (8.425635e-06 9.428123e-03 -2.200456e-04)) ((-8.938007e-04 -1.941858e-01 -2.197900e-03) (-6.154243e-07 7.836388e-04 1.771167e-06))
0.000391954   	((2.918223e-03 1.037873e+01 6.431725e-03) (7.483093e-06 9.527863e-03 -2.333891e-04)) ((-2.471804e-06 -1.942661e-01 7.459932e-05) (-4.431390e-07 7.970116e-04 2.305412e-06))
0.00039779    	((6.495251e-03 1.035671e+01 1.331054e-02) (6.820625e-06 9.621088e-03 -2.377400e-04)) ((3.160063e-04 -1.936564e-01 1.005898e-03) (-7.408414e-08 8.105415e-04 3.159307e-06))
0.000403627   	((-3.118159e-03 1.033793e+01 -4.206160e-03) (8.095600e-06 9.715017e-03 -2.425012e-04)) ((-6.796721e-04 -1.930410e-01 -1.623675e-03) (-1.351124e-08 8.237329e-04 3.326972e-06))
0.000409466   	((2.045006e-03 1.030387e+01 5.109213e-03) (7.572299e-06 9.806437e-03 -2.533638e-04)) ((-8.026636e-05 -1.921983e-01 -5.397919e-05) (8.982704e-08 8.366094e-04 3.654253e-06))
0.000415306   	((3.289194e-03 1.030146e+01 7.336847e-03) (7.621540e-06 9.897735e-03 -2.637147e-04)) ((7.719266e-05 -1.920764e-01 3.748382e-04) (2.336210e-07 8.494925e-04 4.045953e-06))
0.000421147   	((3.653971e-03 1.030139e+01 7.844479e-03) (7.362861e-06 9.990133e-03 -2.745277e-04)) ((1.183388e-04 -1.919837e-01 4.661654e-04) (3.486660e-07 8.623437e-04 4.373529e-06))
0.000426989   	((3.827450e-03 1.030385e+01 8.044678e-03) (7.089131e-06 1.008355e-02 -2.852831e-04)) ((1.319418e-04 -1.919519e-01 4.937024e-04) (4.496881e-07 8.751429e-04 4.663321e-06))
0.000432831   	((3.985226e-03 1.030821e+01 8.357232e-03) (6.893597e-06 1.017757e-02 -2.957662e-04)) ((1.433478e-04 -1.919634e-01 5.192892e-04) (5.381422e-07 8.878759e-04 4.919141e-06))
0.000438674   	((4.065649e-03 1.031215e+01 8.437549e-03) (6.824105e-06 1.027252e-02 -3.050599e-04)) ((1.482595e-04 -1.919531e-01 5.250451e-04) (6.206772e-07 9.006199e-04 5.157093e-06))
0.000444517   	((4.054154e-03 1.031637e+01 8.363841e-03) (6.736770e-06 1.036828e-02 -3.130112e-04)) ((1.363061e-04 -1.919508e-01 4.875752e-04) (6.908788e-07 9.133843e-04 5.360257e-06))
0.000450359   	((7.912014e-04 1.034261e+01 3.434948e-03) (5.551172e-06 1.046633e-02 -3.171903e-04)) ((-4.455811e-04 -1.923900e-01 -8.849462e-04) (7.054824e-07 9.263569e-04 5.429995e-06))
0.000456201   	((-7.579372e-03 1.040243e+01 -8.930937e-03) (-6.525515e-07 1.053514e-02 -3.647820e-04)) ((-1.843286e-03 -1.933963e-01 -4.305913e-03) (1.528347e-06 9.363359e-04 7.632573e-06))
0.000462041   	((1.653326e-03 1.036113e+01 4.752928e-03) (1.499894e-06 1.064019e-02 -3.689091e-04)) ((-3.180172e-04 -1.929759e-01 -4.863596e-04) (1.687397e-06 9.494464e-04 8.172569e-06))
0.00046788    	((1.404994e-03 1.035054e+01 3.732197e-03) (-5.586092e-07 1.074800e-02 -3.726297e-04)) ((-4.047744e-04 -1.925841e-01 -6.583954e-04) (1.444162e-06 9.623478e-04 7.505435e-06))
0.000473718   	((5.920637e-04 1.035512e+01 1.591906e-03) (-2.578112e-06 1.083819e-02 -3.869666e-04)) ((-2.362338e-04 -1.926791e-01 -3.461476e-04) (1.666293e-06 9.745439e-04 8.047508e-06))
0.000479554   	((-1.513307e-02 1.042949e+01 -2.677884e-02) (-7.868213e-06 1.090515e-02 -4.053391e-04)) ((-2.293070e-03 -1.951331e-01 -5.261467e-03) (2.891920e-06 9.862171e-04 1.093683e-05))
0.000485388   	((-7.857871e-03 1.039227e+01 -1.610293e-02) (-5.947960e-06 1.097954e-02 -4.327024e-04)) ((-1.074433e-03 -1.942081e-01 -2.277453e-03) (3.830137e-06 9.974327e-04 1.313633e-05))
0.00049122    	((-1.116327e-02 1.042005e+01 -2.031624e-02) (-2.067041e-05 1.105119e-02 -4.778274e-04)) ((-1.255133e-03 -1.944860e-01 -2.401693e-03) (4.677165e-06 1.006944e-03 1.493388e-05))
0.00049705    	((-2.583285e-03 1.038880e+01 -7.948264e-03) (-3.892753e-05 1.115969e-02 -5.254175e-04)) ((1.047872e-04 -1.937960e-01 7.744683e-04) (4.392812e-06 1.015703e-03 1.444722e-05))
0.000502877   	((8.078687e-03 1.034837e+01 8.119758e-03) (-4.442639e-05 1.126258e-02 -5.461031e-04)) ((1.634517e-03 -1.927921e-01 4.014347e-03) (4.278096e-06 1.027119e-03 1.419011e-05))
0.000508703   	((1.068145e-02 1.034617e+01 1.251274e-02) (-4.834540e-05 1.136703e-02 -5.644469e-04)) ((1.729254e-03 -1.927178e-01 4.041742e-03) (3.855890e-06 1.038870e-03 1.328776e-05))
0.000514527   	((1.699490e-02 1.034491e+01 2.210896e-02) (-4.987887e-05 1.146246e-02 -5.729856e-04)) ((2.610498e-03 -1.925490e-01 5.852230e-03) (3.426696e-06 1.049629e-03 1.236354e-05))
0.000520348   	((2.928141e-02 1.042574e+01 3.732973e-02) (-3.806906e-05 1.156119e-02 -5.586721e-04)) ((4.040240e-03 -1.938135e-01 8.678927e-03) (2.990018e-06 1.059713e-03 1.120367e-05))
0.000526166   	((2.331302e-02 1.039721e+01 3.361735e-02) (-3.833227e-05 1.166865e-02 -5.599537e-04)) ((3.021151e-03 -1.937030e-01 6.531911e-03) (2.958951e-06 1.071948e-03 1.105546e-05))
0.000531982   	((2.682378e-02 1.041301e+01 3.914200e-02) (-2.893941e-05 1.176418e-02 -5.386650e-04)) ((3.204763e-03 -1.940593e-01 6.542995e-03) (2.606802e-06 1.083473e-03 1.012510e-05))
0.000537795   	((2.355113e-02 1.040485e+01 3.378690e-02) (-3.813067e-05 1.185521e-02 -5.291325e-04)) ((2.646613e-03 -1.938050e-01 5.281996e-03) (2.560938e-06 1.096454e-03 1.004262e-05))
0.000543605   	((1.977978e-02 1.039180e+01 2.802465e-02) (-1.666895e-05 1.193574e-02 -5.188018e-04)) ((2.163431e-03 -1.933775e-01 4.371924e-03) (2.224820e-06 1.106946e-03 9.221347e-06))
0.000549411   	((1.620231e-02 1.040498e+01 2.393768e-02) (-1.736227e-05 1.203759e-02 -5.108976e-04)) ((1.349495e-03 -1.939414e-01 2.665031e-03) (2.226769e-06 1.119256e-03 8.918753e-06))
0.000555214   	((1.687575e-02 1.036403e+01 2.582879e-02) (-1.493792e-05 1.212833e-02 -5.053951e-04)) ((1.390483e-03 -1.931814e-01 2.806749e-03) (1.905783e-06 1.131981e-03 8.362820e-06))
0.000561014   	((3.153512e-03 1.029879e+01 7.031943e-03) (-1.024434e-05 1.222557e-02 -4.967880e-04)) ((-3.000088e-05 -1.916732e-01 1.955140e-04) (1.738716e-06 1.144581e-03 7.992301e-06))
0.000566812   	((1.022823e-03 1.030110e+01 4.555342e-03) (-6.137853e-06 1.232665e-02 -4.893972e-04)) ((-2.949638e-04 -1.916859e-01 -2.790971e-04) (1.638408e-06 1.157465e-03 7.740160e-06))
0.000572606   	((2.319205e-03 1.032226e+01 6.859339e-03) (-3.026760e-06 1.242819e-02 -4.843750e-04)) ((7.200872e-05 -1.921242e-01 5.240489e-04) (1.529643e-06 1.170607e-03 7.467733e-06))
0.000578397   	((-7.393347e-04 1.032557e+01 3.028907e-03) (1.980665e-06 1.250857e-02 -4.626034e-04)) ((-6.927632e-04 -1.922610e-01 -1.060503e-03) (6.165318e-07 1.180466e-03 5.578202e-06))
0.000584185   	((-1.848241e-03 1.039932e+01 9.647436e-04) (2.387721e-05 1.258932e-02 -3.934388e-04)) ((7.823501e-06 -1.941422e-01 4.880430e-04) (5.245886e-07 1.185555e-03 5.213704e-06))
0.00058997    	((-8.908605e-03 1.045044e+01 -7.451462e-03) (2.200775e-05 1.268058e-02 -4.073717e-04)) ((-1.810573e-03 -1.954167e-01 -3.117588e-03) (8.674844e-07 1.198207e-03 5.777393e-06))
0.000595749   	((-1.163325e-02 1.041588e+01 -1.084784e-02) (1.913281e-05 1.276852e-02 -4.170860e-04)) ((-3.161869e-03 -1.954484e-01 -6.092380e-03) (7.769330e-07 1.207881e-03 5.657498e-06))
0.000601525   	((-5.043199e-03 1.042746e+01 -4.827193e-04) (2.484161e-05 1.286907e-02 -3.984979e-04)) ((-1.700554e-03 -1.956484e-01 -3.115657e-03) (4.356450e-07 1.216838e-03 4.944468e-06))
0.000607298   	((-7.357457e-03 1.041683e+01 -4.795149e-03) (3.097882e-05 1.296030e-02 -3.815655e-04)) ((-1.392079e-03 -1.955050e-01 -2.146133e-03) (9.741290e-07 1.225320e-03 6.173617e-06))
0.000613067   	((-7.390184e-04 1.029535e+01 7.585620e-03) (-1.208932e-05 1.301198e-02 -4.191698e-04)) ((-1.036443e-04 -1.922249e-01 -2.138928e-04) (2.104730e-06 1.229373e-03 8.401060e-06))
0.000618831   	((-1.640657e-02 1.036370e+01 -1.609265e-02) (-2.125291e-05 1.309134e-02 -4.398614e-04)) ((-3.359507e-03 -1.948387e-01 -5.940765e-03) (2.956619e-06 1.235949e-03 1.000078e-05))
0.000624592   	((-2.780411e-02 1.039310e+01 -3.444972e-02) (-1.855200e-05 1.318096e-02 -4.611766e-04)) ((-4.072491e-03 -1.957602e-01 -6.768232e-03) (4.328821e-06 1.246951e-03 1.234960e-05))
0.00063035    	((-1.400297e-02 1.033009e+01 -9.432786e-03) (-2.500865e-05 1.327358e-02 -5.077315e-04)) ((-3.905205e-03 -1.938260e-01 -6.715429e-03) (5.432709e-06 1.254927e-03 1.421779e-05))
0.000636103   	((-3.319683e-02 1.041898e+01 -4.261621e-02) (-4.459284e-05 1.336062e-02 -5.727350e-04)) ((-6.476130e-03 -1.967228e-01 -1.147572e-02) (6.343924e-06 1.260934e-03 1.591650e-05))
0.000641852   	((-1.212562e-03 1.028912e+01 -6.550146e-03) (-5.116011e-05 1.344636e-02 -5.788206e-04)) ((2.798741e-04 -1.937739e-01 7.995364e-04) (5.828174e-06 1.270662e-03 1.495036e-05))
0.000647599   	((6.552858e-03 1.025898e+01 4.907759e-03) (-6.346243e-05 1.355461e-02 -6.146735e-04)) ((1.398423e-03 -1.924703e-01 2.973054e-03) (6.152641e-06 1.280928e-03 1.557001e-05))
0.000653343   	((-2.372056e-03 1.030419e+01 -5.535801e-03) (-7.447154e-05 1.366014e-02 -6.424774e-04)) ((-1.758970e-04 -1.935383e-01 5.100884e-05) (6.450037e-06 1.292955e-03 1.615326e-05))
0.000659083   	((4.349038e-03 1.036318e+01 1.259935e-03) (-7.971218e-05 1.374060e-02 -6.638608e-04)) ((8.974832e-04 -1.948783e-01 1.775364e-03) (6.527695e-06 1.304246e-03 1.636464e-05))
0.000664819   	((6.521160e-04 1.039707e+01 -3.839952e-03) (-8.939379e-05 1.384858e-02 -6.951229e-04)) ((1.179158e-03 -1.960841e-01 2.253426e-03) (6.857971e-06 1.314982e-03 1.692647e-05))
0.000670552   	((1.451148e-02 1.043676e+01 1.213758e-02) (-1.042435e-04 1.392612e-02 -7.496541e-04)) ((2.152765e-03 -1.971663e-01 3.654792e-03) (7.538549e-06 1.322425e-03 1.813550e-05))
0.000676279   	((3.194296e-02 1.036230e+01 3.367745e-02) (-1.095072e-04 1.400587e-02 -7.753749e-04)) ((5.395262e-03 -1.959663e-01 9.151531e-03) (7.188330e-06 1.332974e-03 1.763193e-05))
0.000682003   	((1.060274e-02 1.041167e+01 1.001785e-02) (-1.050473e-04 1.411009e-02 -7.979774e-04)) ((2.319899e-03 -1.969342e-01 4.158293e-03) (7.110073e-06 1.342866e-03 1.738626e-05))
0.000687722   	((2.617608e-02 1.033419e+01 2.983723e-02) (-1.158068e-04 1.421656e-02 -8.350922e-04)) ((4.633206e-03 -1.952941e-01 7.897232e-03) (8.181479e-06 1.354133e-03 1.897585e-05))
0.000693437   	((2.141982e-02 1.032900e+01 2.294802e-02) (-1.189375e-04 1.430706e-02 -8.631133e-04)) ((3.110374e-03 -1.950749e-01 5.311312e-03) (7.981410e-06 1.363934e-03 1.867044e-05))
0.000699147   	((2.124972e-02 1.030166e+01 2.319489e-02) (-1.082281e-04 1.437208e-02 -8.464467e-04)) ((3.597047e-03 -1.940726e-01 6.268873e-03) (7.010343e-06 1.371210e-03 1.697665e-05))
0.000704854   	((6.853189e-03 1.027313e+01 7.937332e-03) (-1.171291e-04 1.447280e-02 -8.675221e-04)) ((1.257510e-03 -1.937804e-01 2.633622e-03) (7.367146e-06 1.383608e-03 1.738429e-05))
0.000710556   	((9.101561e-03 1.029883e+01 1.176299e-02) (-1.182102e-04 1.456805e-02 -9.008135e-04)) ((1.182271e-03 -1.944238e-01 2.240822e-03) (8.463516e-06 1.395424e-03 1.920807e-05))
0.000716254   	((1.770301e-02 1.028955e+01 2.139556e-02) (-1.237506e-04 1.467583e-02 -9.191732e-04)) ((1.739460e-03 -1.944024e-01 3.055693e-03) (9.256703e-06 1.406734e-03 2.050822e-05))
0.000721948   	((-7.778631e-03 1.029440e+01 -6.338803e-03) (-1.288271e-04 1.477039e-02 -9.277955e-04)) ((-2.230443e-03 -1.946740e-01 -2.959172e-03) (8.399305e-06 1.418170e-03 1.900287e-05))
0.000727638   	((-7.230899e-04 1.029342e+01 3.598236e-03) (-1.314537e-04 1.482109e-02 -9.400275e-04)) ((-8.644458e-04 -1.950783e-01 -7.448060e-04) (9.013526e-06 1.428712e-03 1.965815e-05))
0.000733324   	((1.497057e-02 1.021506e+01 1.997275e-02) (-1.283996e-04 1.491088e-02 -9.334666e-04)) ((1.422447e-03 -1.931844e-01 2.522421e-03) (9.667774e-06 1.438692e-03 2.050221e-05))
0.000739006   	((-5.291463e-03 1.035481e+01 -1.814291e-03) (-1.409535e-04 1.496170e-02 -9.618617e-04)) ((-1.785695e-03 -1.959042e-01 -2.381195e-03) (1.053466e-05 1.443443e-03 2.177840e-05))
0.000744683   	((1.458980e-02 1.029925e+01 2.162794e-02) (-1.502521e-04 1.504291e-02 -9.477179e-04)) ((9.774565e-04 -1.956222e-01 1.577872e-03) (9.596304e-06 1.451635e-03 2.034458e-05))
0.000750357   	((-6.725047e-03 1.035753e+01 -1.589291e-03) (-1.375174e-04 1.511971e-02 -9.345158e-04)) ((-3.159861e-03 -1.969392e-01 -5.033053e-03) (9.014350e-06 1.459457e-03 1.959089e-05))
0.000756027   	((-1.696645e-02 1.037462e+01 -1.096791e-02) (-1.361294e-04 1.519526e-02 -9.223246e-04)) ((-5.064747e-03 -1.975638e-01 -7.644875e-03) (9.986836e-06 1.468870e-03 2.068214e-05))
0.000761692   	((1.497946e-02 1.041671e+01 2.028653e-02) (-1.461268e-04 1.524221e-02 -9.201571e-04)) ((1.088054e-03 -1.987724e-01 1.739316e-03) (1.120846e-05 1.474039e-03 2.246763e-05))
0.000767353   	((-3.558602e-03 1.043142e+01 -3.918896e-04) (-1.376980e-04 1.528026e-02 -9.304548e-04)) ((-2.047581e-03 -1.993684e-01 -2.839689e-03) (1.380191e-05 1.482461e-03 2.608638e-05))
0.000773009   	((7.695137e-03 1.035450e+01 1.665307e-02) (-1.241563e-04 1.536713e-02 -9.259449e-04)) ((1.316568e-05 -1.967074e-01 -3.602676e-05) (1.260486e-05 1.492065e-03 2.433234e-05))
0.00077866    	((2.633175e-02 1.036709e+01 2.995757e-02) (-1.293378e-04 1.546368e-02 -9.353585e-04)) ((2.659094e-03 -1.978578e-01 3.869086e-03) (1.340545e-05 1.501194e-03 2.526116e-05))
0.000784307   	((9.448369e-03 1.031340e+01 1.075993e-02) (-1.486969e-04 1.550896e-02 -9.705687e-04)) ((-5.258002e-04 -1.971163e-01 -5.725219e-04) (1.384999e-05 1.508888e-03 2.572450e-05))
0.000789949   	((-1.061024e-02 1.019682e+01 -8.353050e-03) (-1.383443e-04 1.557701e-02 -9.863744e-04)) ((1.758730e-03 -1.922987e-01 4.747809e-03) (1.208894e-05 1.516511e-03 2.333078e-05))
0.000795588   	((1.158780e-02 1.029052e+01 1.603019e-02) (-1.384734e-04 1.569187e-02 -9.829690e-04)) ((1.269354e-03 -1.967488e-01 2.255780e-03) (1.224066e-05 1.523260e-03 2.319259e-05))
0.000801221   	((4.573093e-03 1.025310e+01 1.402507e-02) (-1.285097e-04 1.576806e-02 -9.621063e-04)) ((-2.111742e-03 -1.962450e-01 -2.705655e-03) (1.100000e-05 1.531423e-03 2.136370e-05))
0.000806849   	((8.842944e-03 1.024480e+01 1.977047e-02) (-1.217911e-04 1.582688e-02 -9.549184e-04)) ((-1.543116e-03 -1.958484e-01 -1.928327e-03) (1.220327e-05 1.540001e-03 2.294106e-05))
0.000812472   	((1.765330e-02 1.024989e+01 1.959215e-02) (-8.923264e-05 1.586024e-02 -8.877993e-04)) ((3.545163e-03 -1.959681e-01 5.428807e-03) (8.908861e-06 1.539690e-03 1.829995e-05))
0.000818091   	((2.370260e-02 1.037635e+01 2.679402e-02) (-5.770278e-05 1.593694e-02 -8.251703e-04)) ((6.110060e-03 -1.997216e-01 9.117898e-03) (7.403507e-06 1.541501e-03 1.614124e-05))
0.000823705   	((1.778384e-02 1.024017e+01 2.200128e-02) (-2.463887e-05 1.601161e-02 -7.497382e-04)) ((3.595478e-03 -1.964957e-01 5.641378e-03) (6.997517e-06 1.542649e-03 1.534350e-05))
0.000829316   	((1.934134e-02 1.020788e+01 2.712970e-02) (-4.098298e-06 1.608100e-02 -7.060083e-04)) ((1.904283e-03 -1.963838e-01 3.019776e-03) (7.714544e-06 1.546518e-03 1.613139e-05))
0.000834923   	((2.104953e-02 1.025490e+01 2.968048e-02) (2.628375e-05 1.610851e-02 -6.412032e-04)) ((1.089834e-03 -1.975801e-01 1.697634e-03) (6.045900e-06 1.549024e-03 1.363323e-05))
0.000840526   	((1.083408e-02 1.016013e+01 1.920313e-02) (3.377817e-05 1.619151e-02 -6.342737e-04)) ((-1.730491e-03 -1.954919e-01 -2.114998e-03) (6.851952e-06 1.556623e-03 1.457524e-05))
0.000846125   	((6.304041e-03 1.016456e+01 1.527853e-02) (3.489664e-05 1.626644e-02 -6.192345e-04)) ((-3.704744e-03 -1.954273e-01 -4.827336e-03) (6.149175e-06 1.563579e-03 1.355485e-05))
0.000851719   	((-3.691113e-03 1.014411e+01 6.540875e-03) (3.657543e-05 1.637995e-02 -6.193572e-04)) ((-5.650930e-03 -1.951398e-01 -7.165801e-03) (6.216078e-06 1.574412e-03 1.340738e-05))
0.000857309   	((-1.490726e-02 1.020969e+01 -2.868884e-03) (3.030493e-05 1.644104e-02 -6.217738e-04)) ((-9.627779e-03 -1.977818e-01 -1.276825e-02) (7.530718e-06 1.584357e-03 1.516273e-05))
0.000862895   	((-2.529844e-02 1.020424e+01 -1.252424e-02) (2.087066e-05 1.651936e-02 -6.423107e-04)) ((-1.012103e-02 -1.969207e-01 -1.280212e-02) (8.379954e-06 1.592182e-03 1.616804e-05))
0.000868475   	((-2.519532e-02 1.027228e+01 -1.040499e-02) (1.308885e-05 1.658180e-02 -6.554360e-04)) ((-9.922332e-03 -1.993139e-01 -1.266303e-02) (9.913480e-06 1.598372e-03 1.808115e-05))
0.000874052   	((-2.198375e-02 1.029523e+01 -5.639902e-03) (1.047576e-05 1.665892e-02 -6.514411e-04)) ((-8.440206e-03 -1.999550e-01 -1.034835e-02) (9.991168e-06 1.602852e-03 1.812807e-05))