# Forces      
# CofR        : (0.000000e+00 0.000000e+00 0.000000e+00)
# Time        forces(pressure viscous)	moments(pressure viscous)
0             	((2.664535e-15 -6.039613e-14 -1.598721e-14) (0.000000e+00 0.000000e+00 0.000000e+00)) ((7.524419e-06 -2.505057e-05 -4.544243e-05) (0.000000e+00 0.000000e+00 0.000000e+00))
1e-05         	((-3.467001e-04 1.082895e+02 5.332142e-02) (1.265563e-05 6.123800e-03 -2.720905e-05)) ((-1.459687e-03 -3.058101e+00 3.403105e-03) (3.165853e-08 -5.480406e-04 -3.275950e-07))
1.34885e-05   	((-2.228820e-01 -2.572665e+02 -1.337729e+00) (2.551410e-05 -9.180562e-03 -9.779982e-05)) ((-1.031802e-02 1.130541e+01 -2.428092e-01) (-4.203562e-07 3.762972e-04 -1.181910e-05))
1.76746e-05   	((-9.740615e+00 -6.734608e+03 -2.675228e+01) (4.154190e-03 -2.906840e+00 6.116712e-04)) ((-1.393172e+00 2.827974e+02 1.018291e+00) (-8.482031e-04 2.148817e-01 1.970280e-03))
1.82545e-05   	((-1.041051e+02 -7.057956e+04 -1.373097e+02) (-2.752655e-02 -1.770081e+01 7.643560e-02)) ((-2.294568e+01 2.840786e+03 6.413244e+01) (-7.620683e-03 3.803206e-01 2.856541e-02))
1.85634e-05   	((1.727978e+02 -7.996899e+04 4.435615e+02) (-3.192194e-01 -4.937410e+01 8.101980e-01)) ((-7.176201e+01 3.169680e+03 4.280771e+02) (-3.225132e-02 1.494415e+00 1.283365e-01))
1.86448e-05   	((2.779598e+02 -2.991993e+04 7.283681e+02) (3.475824e-01 -2.826357e+01 8.849039e-01)) ((-2.367969e+01 1.123946e+03 2.881623e+02) (-1.964964e-02 1.399186e+00 7.300341e-02))
1.87404e-05   	((1.280326e+02 -9.107504e+03 3.611150e+02) (4.873991e-01 -1.812148e+01 7.827856e-01)) ((-6.309179e+00 3.346393e+02 1.199086e+02) (-1.446770e-02 1.315856e+00 -2.050551e-02))
1.88552e-05   	((4.497704e+01 -3.233462e+03 1.481324e+02) (6.868365e-01 -1.361329e+01 1.069090e+00)) ((-1.922016e+00 1.128031e+02 4.445105e+01) (-1.218711e-02 1.321723e+00 1.869331e-03))
1.8993e-05    	((1.352555e+01 -1.324941e+03 5.846431e+01) (7.493890e-01 -1.007315e+01 1.170333e+00)) ((-8.489628e-01 4.296880e+01 1.674408e+01) (-1.005327e-02 1.258599e+00 1.365083e-02))
1.91583e-05   	((3.826059e+00 -7.239134e+02 2.597882e+01) (7.011208e-01 -7.071338e+00 1.079526e+00)) ((-4.713596e-01 2.188287e+01 7.744472e+00) (-7.871305e-03 1.138818e+00 6.955038e-04))
1.93567e-05   	((1.234473e+00 -5.024023e+02 1.384940e+01) (6.198264e-01 -4.871728e+00 9.538959e-01)) ((-3.065029e-01 1.441076e+01 4.707824e+00) (-6.095533e-03 1.010482e+00 -1.064484e-02))
1.95947e-05   	((3.571948e-01 -3.974509e+02 8.123098e+00) (5.385500e-01 -3.347702e+00 8.231812e-01)) ((-2.314835e-01 1.133923e+01 3.174597e+00) (-4.700651e-03 8.873534e-01 -1.588459e-02))
1.98804e-05   	((6.003200e-02 -3.321744e+02 5.051432e+00) (4.714609e-01 -2.321051e+00 7.073526e-01)) ((-1.807477e-01 9.563577e+00 2.273538e+00) (-3.614267e-03 7.722782e-01 -1.762723e-02))
2.02232e-05   	((8.263483e-03 -2.859194e+02 3.450033e+00) (4.137722e-01 -1.622470e+00 6.179254e-01)) ((-1.412610e-01 8.315416e+00 1.754402e+00) (-2.767369e-03 6.681756e-01 -1.740879e-02))
2.06345e-05   	((-8.267259e-03 -2.496564e+02 2.454750e+00) (3.631294e-01 -1.142067e+00 5.401934e-01)) ((-1.134439e-01 7.309963e+00 1.364047e+00) (-2.110007e-03 5.751719e-01 -1.592009e-02))
2.11281e-05   	((-5.557500e-02 -2.175356e+02 1.863885e+00) (3.168233e-01 -8.144865e-01 4.674740e-01)) ((-8.899173e-02 6.380275e+00 1.082532e+00) (-1.603374e-03 4.924793e-01 -1.399292e-02))
2.17204e-05   	((-1.420666e-01 -1.884207e+02 1.234651e+00) (2.722946e-01 -5.920918e-01 4.011096e-01)) ((-6.820427e-02 5.522808e+00 7.942116e-01) (-1.219443e-03 4.194918e-01 -1.222558e-02))
2.24312e-05   	((-2.534578e-01 -1.626725e+02 6.862748e-01) (2.308054e-01 -4.375376e-01 3.415790e-01)) ((-5.289478e-02 4.729062e+00 5.485596e-01) (-9.242625e-04 3.555087e-01 -1.061655e-02))
2.32842e-05   	((-3.866249e-01 -1.393695e+02 1.349362e-01) (1.937347e-01 -3.282802e-01 2.889904e-01)) ((-3.954584e-02 3.980909e+00 3.363262e-01) (-7.068567e-04 2.999577e-01 -9.279289e-03))
2.43077e-05   	((-5.982382e-01 -1.175074e+02 -5.758499e-01) (1.603466e-01 -2.488867e-01 2.425182e-01)) ((-2.859209e-02 3.248251e+00 9.259631e-02) (-5.453107e-04 2.519411e-01 -7.987053e-03))
2.5536e-05    	((-9.689026e-01 -9.647637e+01 -1.691713e+00) (1.302107e-01 -1.887981e-01 2.004833e-01)) ((-1.826481e-02 2.479147e+00 -2.110037e-01) (-4.245466e-04 2.102045e-01 -6.966652e-03))
2.70099e-05   	((-1.718966e+00 -7.452758e+01 -3.749877e+00) (1.013151e-01 -1.386346e-01 1.612629e-01)) ((-9.354562e-03 1.579446e+00 -6.927793e-01) (-3.419548e-04 1.736185e-01 -6.262287e-03))
2.87437e-05   	((-3.380727e+00 -4.890240e+01 -8.091698e+00) (7.186770e-02 -8.966841e-02 1.209541e-01)) ((-3.746159e-03 3.645559e-01 -1.677568e+00) (-2.915921e-04 1.413821e-01 -6.278133e-03))
3.05711e-05   	((-6.362737e+00 -1.923695e+01 -1.598655e+01) (4.235482e-02 -3.777882e-02 7.749881e-02)) ((-8.482549e-03 -1.180753e+00 -3.509680e+00) (-2.722419e-04 1.144609e-01 -7.703491e-03))
3.21788e-05   	((-9.149779e+00 3.968139e+00 -2.419107e+01) (1.642158e-02 1.931488e-03 3.543918e-02)) ((-2.576120e-02 -2.313325e+00 -5.555614e+00) (-2.511736e-04 9.456064e-02 -9.657619e-03))
3.374e-05     	((-1.183161e+01 2.584054e+01 -3.291038e+01) (-3.650515e-03 3.660697e-02 -6.638119e-03)) ((-4.875378e-02 -3.316326e+00 -7.857383e+00) (-2.308971e-04 7.806901e-02 -1.204704e-02))
3.50633e-05   	((-1.160004e+01 3.078282e+01 -3.414599e+01) (-2.060119e-02 3.656475e-02 -3.140373e-02)) ((-6.197241e-02 -3.203834e+00 -8.480489e+00) (-1.959010e-04 6.733036e-02 -1.160821e-02))
3.63159e-05   	((-9.762811e+00 2.372892e+01 -2.988953e+01) (-3.731833e-02 2.296590e-02 -4.287566e-02)) ((-6.216373e-02 -2.532835e+00 -7.585223e+00) (-1.579549e-04 6.001832e-02 -9.946126e-03))
3.75052e-05   	((-7.098135e+00 9.919370e+00 -2.230198e+01) (-4.866469e-02 3.135870e-03 -4.517729e-02)) ((-5.475389e-02 -1.571668e+00 -5.788399e+00) (-1.198709e-04 5.508039e-02 -7.638674e-03))
3.87453e-05   	((-4.995818e+00 -1.530577e+00 -1.581480e+01) (-5.548165e-02 -1.379868e-02 -4.209436e-02)) ((-4.751633e-02 -8.243621e-01 -4.191972e+00) (-9.001085e-05 5.129131e-02 -5.602289e-03))
4.01385e-05   	((-3.743682e+00 -7.596158e+00 -1.176845e+01) (-5.837330e-02 -2.540897e-02 -3.666693e-02)) ((-4.364459e-02 -4.083319e-01 -3.183680e+00) (-6.844667e-05 4.785767e-02 -4.021599e-03))
4.1748e-05    	((-3.094857e+00 -9.484950e+00 -9.567261e+00) (-5.866100e-02 -3.137265e-02 -3.074956e-02)) ((-4.325994e-02 -2.272318e-01 -2.642243e+00) (-5.452678e-05 4.441961e-02 -2.951107e-03))
4.36166e-05   	((-2.841957e+00 -8.549011e+00 -8.597548e+00) (-5.763435e-02 -3.265704e-02 -2.582243e-02)) ((-4.579636e-02 -1.979408e-01 -2.421696e+00) (-4.655358e-05 4.085171e-02 -2.322342e-03))
4.57682e-05   	((-2.853535e+00 -5.775000e+00 -8.438397e+00) (-5.658873e-02 -3.045091e-02 -2.238710e-02)) ((-5.114803e-02 -2.675869e-01 -2.411134e+00) (-4.340434e-05 3.715974e-02 -2.033156e-03))
4.79669e-05   	((-2.667957e+00 -4.583760e+00 -7.771556e+00) (-5.540017e-02 -2.768055e-02 -2.014422e-02)) ((-5.185931e-02 -2.680238e-01 -2.242132e+00) (-4.043879e-05 3.382189e-02 -1.808494e-03))
5.02187e-05   	((-2.343196e+00 -4.666272e+00 -6.757320e+00) (-5.373606e-02 -2.511751e-02 -1.830441e-02)) ((-4.853387e-02 -2.192743e-01 -1.955751e+00) (-3.739906e-05 3.085034e-02 -1.597730e-03))
5.25562e-05   	((-1.977306e+00 -5.266336e+00 -5.651718e+00) (-5.173366e-02 -2.283914e-02 -1.649240e-02)) ((-4.321444e-02 -1.549331e-01 -1.632744e+00) (-3.370095e-05 2.818070e-02 -1.382931e-03))
5.50166e-05   	((-1.636050e+00 -5.886918e+00 -4.636721e+00) (-4.944976e-02 -2.070055e-02 -1.468629e-02)) ((-3.742528e-02 -9.577115e-02 -1.328966e+00) (-3.024699e-05 2.573941e-02 -1.183777e-03))
5.76427e-05   	((-1.350559e+00 -6.227611e+00 -3.790261e+00) (-4.687417e-02 -1.852890e-02 -1.288975e-02)) ((-3.204233e-02 -5.355319e-02 -1.070795e+00) (-2.726344e-05 2.346927e-02 -1.011598e-03))
6.0478e-05    	((-1.132637e+00 -6.186647e+00 -3.144995e+00) (-4.413549e-02 -1.623734e-02 -1.117323e-02)) ((-2.757464e-02 -3.151020e-02 -8.690110e-01) (-2.518630e-05 2.132365e-02 -8.711197e-04))
6.35265e-05   	((-9.601966e-01 -5.899439e+00 -2.630152e+00) (-4.136095e-02 -1.389763e-02 -9.655464e-03)) ((-2.375567e-02 -2.229460e-02 -7.054514e-01) (-2.355338e-05 1.930028e-02 -7.561227e-04))
6.68337e-05   	((-8.350063e-01 -5.367788e+00 -2.255692e+00) (-3.865103e-02 -1.153132e-02 -8.387199e-03)) ((-2.069252e-02 -2.628218e-02 -5.808963e-01) (-2.234949e-05 1.737467e-02 -6.667982e-04))
7.04339e-05   	((-7.481804e-01 -4.646636e+00 -1.989060e+00) (-3.604511e-02 -9.103737e-03 -7.367732e-03)) ((-1.822235e-02 -4.095476e-02 -4.856891e-01) (-2.164701e-05 1.553439e-02 -6.026730e-04))
7.43573e-05   	((-6.936018e-01 -3.786714e+00 -1.815435e+00) (-3.362116e-02 -6.610694e-03 -6.647176e-03)) ((-1.624439e-02 -6.415817e-02 -4.135351e-01) (-2.170500e-05 1.377191e-02 -5.610584e-04))
7.8626e-05    	((-6.671985e-01 -2.847328e+00 -1.717968e+00) (-3.139303e-02 -4.125541e-03 -6.234382e-03)) ((-1.467746e-02 -9.432747e-02 -3.589718e-01) (-2.215643e-05 1.208542e-02 -5.395821e-04))
8.32622e-05   	((-6.659495e-01 -1.849676e+00 -1.692446e+00) (-2.948314e-02 -1.696242e-03 -6.090991e-03)) ((-1.333191e-02 -1.310680e-01 -3.173011e-01) (-2.313965e-05 1.047491e-02 -5.373967e-04))
8.82668e-05   	((-6.869950e-01 -8.335873e-01 -1.726110e+00) (-2.790983e-02 6.773024e-04 -6.232891e-03)) ((-1.209344e-02 -1.730242e-01 -2.843183e-01) (-2.451860e-05 8.946036e-03 -5.485255e-04))
9.33396e-05   	((-6.741598e-01 8.150211e-03 -1.682891e+00) (-2.657176e-02 2.690148e-03 -6.412167e-03)) ((-1.027449e-02 -2.017100e-01 -2.412736e-01) (-2.528455e-05 7.605546e-03 -5.471611e-04))
9.84278e-05   	((-6.209961e-01 6.380912e-01 -1.543982e+00) (-2.527344e-02 4.318875e-03 -6.403142e-03)) ((-7.988608e-03 -2.135500e-01 -1.897381e-01) (-2.513490e-05 6.461029e-03 -5.261541e-04))
0.000103556   	((-5.372878e-01 1.087148e+00 -1.330077e+00) (-2.382526e-02 5.609482e-03 -6.108093e-03)) ((-5.365086e-03 -2.114750e-01 -1.337111e-01) (-2.362479e-05 5.494316e-03 -4.790407e-04))
0.000108745   	((-4.362500e-01 1.408785e+00 -1.071347e+00) (-2.211942e-02 6.569397e-03 -5.491031e-03)) ((-2.568480e-03 -1.994981e-01 -7.790475e-02) (-2.108199e-05 4.686119e-03 -4.129014e-04))
0.000114021   	((-3.304924e-01 1.662143e+00 -7.987559e-01) (-2.015082e-02 7.280676e-03 -4.659770e-03)) ((1.449582e-04 -1.821532e-01 -2.720445e-02) (-1.753316e-05 4.012345e-03 -3.335709e-04))
0.000119405   	((-2.321673e-01 1.931212e+00 -5.449064e-01) (-1.799828e-02 7.846947e-03 -3.690681e-03)) ((2.474431e-03 -1.644386e-01 1.293471e-02) (-1.354942e-05 3.446193e-03 -2.524827e-04))
0.00012492    	((-1.514647e-01 2.262625e+00 -3.366205e-01) (-1.576634e-02 8.336391e-03 -2.666257e-03)) ((4.043694e-03 -1.500208e-01 3.852329e-02) (-9.503353e-06 2.964810e-03 -1.762208e-04))
0.000130597   	((-9.080909e-02 2.645496e+00 -1.831485e-01) (-1.356421e-02 8.835231e-03 -1.695044e-03)) ((4.856463e-03 -1.403131e-01 5.117015e-02) (-5.941354e-06 2.547807e-03 -1.137238e-04))
0.000136446   	((-4.841269e-02 3.073988e+00 -7.725145e-02) (-1.148703e-02 9.392483e-03 -8.765867e-04)) ((5.066833e-03 -1.353349e-01 5.440128e-02) (-2.916847e-06 2.182152e-03 -6.624600e-05))
0.000142482   	((-2.068108e-02 3.532199e+00 -1.322487e-02) (-9.574907e-03 1.001148e-02 -1.964556e-04)) ((4.881088e-03 -1.341788e-01 5.107401e-02) (-9.249239e-07 1.858970e-03 -3.389068e-05))
0.000148727   	((-3.852985e-03 3.972553e+00 2.348102e-02) (-7.858813e-03 1.068381e-02 3.269062e-04)) ((4.555380e-03 -1.355550e-01 4.564904e-02) (4.053036e-07 1.570005e-03 -1.140396e-05))
0.000155205   	((5.650172e-03 4.398817e+00 4.122281e-02) (-6.353487e-03 1.139365e-02 7.127017e-04)) ((4.205962e-03 -1.386196e-01 4.009610e-02) (8.476901e-07 1.311655e-03 4.525644e-07))
0.000161941   	((1.145392e-02 4.806840e+00 4.995761e-02) (-5.044506e-03 1.208985e-02 1.002891e-03)) ((3.971132e-03 -1.426239e-01 3.595595e-02) (8.465132e-07 1.081640e-03 4.522692e-06))
0.00016873    	((1.445524e-02 5.191927e+00 5.006854e-02) (-3.958224e-03 1.272548e-02 1.187529e-03)) ((3.724329e-03 -1.468030e-01 3.198943e-02) (5.360413e-07 8.856518e-04 4.302560e-06))
0.000175499   	((1.581444e-02 5.551906e+00 4.603342e-02) (-3.073560e-03 1.327900e-02 1.292320e-03)) ((3.503868e-03 -1.508728e-01 2.858404e-02) (-1.324429e-07 7.214160e-04 5.191903e-07))
0.000182255   	((1.665900e-02 5.883996e+00 4.207408e-02) (-2.342065e-03 1.377553e-02 1.323245e-03)) ((3.357153e-03 -1.546490e-01 2.617392e-02) (-1.021060e-06 5.855652e-04 -5.074165e-06))
0.000188943   	((1.760754e-02 6.198528e+00 3.742277e-02) (-1.748466e-03 1.421197e-02 1.302951e-03)) ((3.288531e-03 -1.583044e-01 2.450610e-02) (-2.040496e-06 4.753930e-04 -1.155750e-05))
0.000195534   	((1.796156e-02 6.475130e+00 3.322543e-02) (-1.270165e-03 1.459510e-02 1.243830e-03)) ((3.268658e-03 -1.614259e-01 2.351656e-02) (-3.062460e-06 3.861565e-04 -1.747420e-05))
0.000202046   	((1.814104e-02 6.726062e+00 3.083974e-02) (-8.777257e-04 1.492295e-02 1.174745e-03)) ((3.285197e-03 -1.642231e-01 2.294919e-02) (-3.945027e-06 3.147502e-04 -2.276675e-05))
0.000208488   	((1.840073e-02 6.964468e+00 3.060755e-02) (-5.480815e-04 1.521605e-02 1.092351e-03)) ((3.311520e-03 -1.669554e-01 2.254659e-02) (-4.619932e-06 2.589270e-04 -2.689791e-05))
0.00021487    	((1.832050e-02 7.185724e+00 2.965635e-02) (-2.698242e-04 1.547964e-02 9.963574e-04)) ((3.297590e-03 -1.694124e-01 2.187399e-02) (-5.054516e-06 2.171244e-04 -2.948699e-05))
0.000221201   	((1.844404e-02 7.393094e+00 2.991063e-02) (-3.995240e-05 1.570737e-02 8.827798e-04)) ((3.296268e-03 -1.716792e-01 2.134795e-02) (-5.128479e-06 1.864852e-04 -3.009240e-05))
0.000227486   	((1.816196e-02 7.589570e+00 2.952307e-02) (1.459931e-04 1.589877e-02 7.607200e-04)) ((3.266086e-03 -1.738197e-01 2.068574e-02) (-5.012706e-06 1.655498e-04 -2.970265e-05))
0.000233732   	((1.827745e-02 7.772267e+00 3.066093e-02) (2.969662e-04 1.605669e-02 6.317145e-04)) ((3.244547e-03 -1.756902e-01 2.010198e-02) (-4.693935e-06 1.526287e-04 -2.840171e-05))
0.000239942   	((1.791252e-02 7.949883e+00 3.037477e-02) (4.177682e-04 1.617940e-02 4.992165e-04)) ((3.188921e-03 -1.775041e-01 1.929738e-02) (-4.236491e-06 1.464557e-04 -2.641784e-05))
0.00024612    	((1.784671e-02 8.117471e+00 3.090479e-02) (5.138167e-04 1.628178e-02 3.677400e-04)) ((3.134238e-03 -1.791604e-01 1.858105e-02) (-3.634016e-06 1.461711e-04 -2.378700e-05))
0.000252271   	((1.743809e-02 8.275704e+00 3.069464e-02) (5.888681e-04 1.636285e-02 2.473278e-04)) ((3.047130e-03 -1.806503e-01 1.771886e-02) (-2.895921e-06 1.509613e-04 -2.066974e-05))
0.000258397   	((1.706998e-02 8.426424e+00 3.029456e-02) (6.442582e-04 1.642893e-02 1.306153e-04)) ((2.966264e-03 -1.820512e-01 1.696145e-02) (-2.108663e-06 1.607475e-04 -1.727173e-05))
0.000264502   	((1.683100e-02 8.569601e+00 3.059958e-02) (6.803639e-04 1.647849e-02 2.113358e-05)) ((2.902081e-03 -1.833697e-01 1.629917e-02) (-1.240985e-06 1.737704e-04 -1.359924e-05))
0.000270589   	((1.688970e-02 8.702809e+00 3.165835e-02) (7.050077e-04 1.651467e-02 -8.529925e-05)) ((2.880061e-03 -1.845052e-01 1.585019e-02) (-3.442303e-07 1.897116e-04 -9.780764e-06))
0.000276661   	((1.670741e-02 8.831612e+00 3.190047e-02) (7.228657e-04 1.654148e-02 -1.912860e-04)) ((2.810404e-03 -1.856240e-01 1.516973e-02) (6.185863e-07 2.082155e-04 -5.744215e-06))
0.000282721   	((1.644105e-02 8.953264e+00 3.193979e-02) (7.336590e-04 1.655631e-02 -2.889925e-04)) ((2.729617e-03 -1.866375e-01 1.446533e-02) (1.548710e-06 2.288442e-04 -1.941646e-06))
0.000288771   	((1.617039e-02 9.070015e+00 3.157091e-02) (7.365780e-04 1.656128e-02 -3.770881e-04)) ((2.657044e-03 -1.875898e-01 1.381774e-02) (2.518524e-06 2.509800e-04 1.831051e-06))
0.000294812   	((1.608824e-02 9.181747e+00 3.174814e-02) (7.303629e-04 1.655907e-02 -4.551492e-04)) ((2.586561e-03 -1.885092e-01 1.320095e-02) (3.528542e-06 2.744928e-04 5.683074e-06))
0.000300846   	((1.582958e-02 9.289164e+00 3.135577e-02) (7.149683e-04 1.655174e-02 -5.258628e-04)) ((2.513509e-03 -1.894016e-01 1.258114e-02) (4.542573e-06 2.989272e-04 9.370925e-06))
0.000306874   	((1.574177e-02 9.389228e+00 3.134121e-02) (6.940454e-04 1.653856e-02 -5.934721e-04)) ((2.456662e-03 -1.901844e-01 1.204265e-02) (5.569371e-06 3.239756e-04 1.297794e-05))
0.000312898   	((1.552484e-02 9.485070e+00 3.075486e-02) (6.706426e-04 1.651720e-02 -6.565775e-04)) ((2.402762e-03 -1.909279e-01 1.151154e-02) (6.519564e-06 3.495931e-04 1.621059e-05))
0.000318919   	((1.548695e-02 9.576203e+00 3.079201e-02) (6.456814e-04 1.648901e-02 -7.146619e-04)) ((2.368641e-03 -1.916341e-01 1.109400e-02) (7.421348e-06 3.757748e-04 1.913161e-05))
0.000324938   	((1.572183e-02 9.660767e+00 3.147688e-02) (6.201227e-04 1.645736e-02 -7.681971e-04)) ((2.351145e-03 -1.922383e-01 1.077143e-02) (8.305762e-06 4.020411e-04 2.185733e-05))
0.000330955   	((1.558430e-02 9.741651e+00 3.060353e-02) (5.940242e-04 1.642470e-02 -8.166443e-04)) ((2.327262e-03 -1.928112e-01 1.038765e-02) (9.155015e-06 4.285692e-04 2.440890e-05))
0.000336953   	((1.534921e-02 9.817367e+00 2.970276e-02) (5.647312e-04 1.638826e-02 -8.608753e-04)) ((2.295481e-03 -1.933240e-01 9.995291e-03) (9.966526e-06 4.551052e-04 2.676200e-05))
0.000342856   	((1.539487e-02 9.890661e+00 2.961227e-02) (5.338336e-04 1.634408e-02 -8.999621e-04)) ((2.268926e-03 -1.938326e-01 9.653009e-03) (1.075672e-05 4.812972e-04 2.900437e-05))
0.000348678   	((1.533063e-02 9.957355e+00 2.922879e-02) (5.025250e-04 1.629621e-02 -9.353596e-04)) ((2.240332e-03 -1.942777e-01 9.308862e-03) (1.152884e-05 5.071157e-04 3.116513e-05))
0.000354432   	((1.514229e-02 1.002025e+01 2.852881e-02) (4.735943e-04 1.624677e-02 -9.677505e-04)) ((2.207278e-03 -1.946976e-01 8.955774e-03) (1.228249e-05 5.324046e-04 3.322888e-05))
0.000360131   	((1.524751e-02 1.007861e+01 2.858781e-02) (4.480593e-04 1.619480e-02 -9.963504e-04)) ((2.193121e-03 -1.950657e-01 8.696421e-03) (1.299145e-05 5.571463e-04 3.511650e-05))
0.000365786   	((1.556755e-02 1.013350e+01 2.910237e-02) (4.247680e-04 1.614302e-02 -1.020108e-03)) ((2.190171e-03 -1.953997e-01 8.486886e-03) (1.366253e-05 5.813740e-04 3.688736e-05))
0.000371406   	((1.580563e-02 1.018644e+01 2.940285e-02) (4.019578e-04 1.609515e-02 -1.039023e-03)) ((2.196853e-03 -1.957284e-01 8.305427e-03) (1.428954e-05 6.050797e-04 3.844906e-05))
0.000376999   	((1.590679e-02 1.023586e+01 2.930529e-02) (3.796406e-04 1.605185e-02 -1.053767e-03)) ((2.201068e-03 -1.960255e-01 8.116220e-03) (1.486693e-05 6.283270e-04 3.982066e-05))
0.000382569   	((1.584137e-02 1.028147e+01 2.872157e-02) (3.591863e-04 1.601064e-02 -1.064683e-03)) ((2.180691e-03 -1.962717e-01 7.834970e-03) (1.538250e-05 6.510890e-04 4.098468e-05))
0.000388122   	((1.598231e-02 1.032366e+01 2.857569e-02) (3.410591e-04 1.597120e-02 -1.073410e-03)) ((2.180532e-03 -1.964742e-01 7.635598e-03) (1.581402e-05 6.732921e-04 4.188975e-05))
0.000393661   	((1.589245e-02 1.036293e+01 2.793046e-02) (3.256341e-04 1.593295e-02 -1.080230e-03)) ((2.169772e-03 -1.966496e-01 7.414679e-03) (1.619628e-05 6.949768e-04 4.262343e-05))
0.000399182   	((1.611701e-02 1.040010e+01 2.800632e-02) (3.133369e-04 1.589631e-02 -1.084048e-03)) ((2.174149e-03 -1.968125e-01 7.262058e-03) (1.653501e-05 7.160960e-04 4.320290e-05))
0.000404674   	((1.621595e-02 1.043518e+01 2.781624e-02) (3.023698e-04 1.585958e-02 -1.085340e-03)) ((2.170488e-03 -1.969550e-01 7.093432e-03) (1.684740e-05 7.366097e-04 4.366857e-05))
0.000410145   	((1.605540e-02 1.046664e+01 2.703448e-02) (2.916581e-04 1.582378e-02 -1.084270e-03)) ((2.156681e-03 -1.970458e-01 6.883019e-03) (1.710513e-05 7.565942e-04 4.393973e-05))
0.000415599   	((1.594287e-02 1.049657e+01 2.634408e-02) (2.817573e-04 1.578931e-02 -1.079424e-03)) ((2.144155e-03 -1.971387e-01 6.694146e-03) (1.731489e-05 7.761602e-04 4.405577e-05))
0.000421043   	((1.613579e-02 1.052454e+01 2.635278e-02) (2.727688e-04 1.575622e-02 -1.071704e-03)) ((2.144747e-03 -1.972211e-01 6.565823e-03) (1.749684e-05 7.952476e-04 4.407859e-05))
0.000426481   	((1.621015e-02 1.055141e+01 2.637329e-02) (2.658608e-04 1.572555e-02 -1.062244e-03)) ((2.143047e-03 -1.972978e-01 6.444094e-03) (1.764999e-05 8.137575e-04 4.402321e-05))
0.000431917   	((1.623194e-02 1.057617e+01 2.612198e-02) (2.617633e-04 1.569678e-02 -1.052294e-03)) ((2.133101e-03 -1.973533e-01 6.291303e-03) (1.775009e-05 8.317299e-04 4.382844e-05))
0.000437355   	((1.616739e-02 1.059982e+01 2.572966e-02) (2.596445e-04 1.566914e-02 -1.041328e-03)) ((2.107082e-03 -1.974221e-01 6.093931e-03) (1.780574e-05 8.492723e-04 4.350998e-05))
0.000442801   	((1.611883e-02 1.062157e+01 2.537370e-02) (2.598258e-04 1.564361e-02 -1.029329e-03)) ((2.084020e-03 -1.974632e-01 5.917443e-03) (1.782692e-05 8.665377e-04 4.309673e-05))
0.000448257   	((1.604232e-02 1.064261e+01 2.494359e-02) (2.613071e-04 1.561933e-02 -1.016110e-03)) ((2.060089e-03 -1.975245e-01 5.738354e-03) (1.781979e-05 8.835108e-04 4.260817e-05))
0.000453727   	((1.602567e-02 1.066247e+01 2.465959e-02) (2.645065e-04 1.559698e-02 -1.001986e-03)) ((2.038566e-03 -1.975837e-01 5.580047e-03) (1.779104e-05 9.002180e-04 4.205371e-05))
0.000459211   	((1.604369e-02 1.068017e+01 2.463231e-02) (2.688362e-04 1.557647e-02 -9.861222e-04)) ((2.016532e-03 -1.976054e-01 5.431755e-03) (1.775160e-05 9.167473e-04 4.146596e-05))
0.000464712   	((1.587895e-02 1.069755e+01 2.411471e-02) (2.732746e-04 1.555804e-02 -9.683555e-04)) ((1.981565e-03 -1.976457e-01 5.238785e-03) (1.768923e-05 9.331179e-04 4.081917e-05))
0.000470231   	((1.547859e-02 1.071400e+01 2.310716e-02) (2.775564e-04 1.554136e-02 -9.477521e-04)) ((1.924766e-03 -1.976842e-01 4.986420e-03) (1.760582e-05 9.493448e-04 4.013830e-05))
0.000475769   	((1.531671e-02 1.072954e+01 2.269443e-02) (2.811595e-04 1.552558e-02 -9.255774e-04)) ((1.880835e-03 -1.977187e-01 4.787059e-03) (1.750946e-05 9.653381e-04 3.943840e-05))
0.000481329   	((1.506828e-02 1.074400e+01 2.213602e-02) (2.836901e-04 1.551138e-02 -9.021905e-04)) ((1.822666e-03 -1.977569e-01 4.552258e-03) (1.740785e-05 9.810754e-04 3.873970e-05))
0.000486859   	((1.492157e-02 1.075938e+01 2.174916e-02) (2.853489e-04 1.549684e-02 -8.774869e-04)) ((1.765723e-03 -1.978107e-01 4.329214e-03) (1.730490e-05 9.964477e-04 3.804960e-05))
0.000492348   	((1.490038e-02 1.077313e+01 2.169657e-02) (2.859840e-04 1.548297e-02 -8.515753e-04)) ((1.720930e-03 -1.978503e-01 4.148845e-03) (1.717749e-05 1.011431e-03 3.731273e-05))
0.000497802   	((1.451800e-02 1.078415e+01 2.081960e-02) (2.849892e-04 1.547096e-02 -8.253078e-04)) ((1.649169e-03 -1.978511e-01 3.887970e-03) (1.704773e-05 1.026130e-03 3.658991e-05))
0.000503228   	((1.425607e-02 1.079574e+01 2.019629e-02) (2.827261e-04 1.546044e-02 -7.990046e-04)) ((1.588262e-03 -1.978903e-01 3.669074e-03) (1.693520e-05 1.040622e-03 3.593939e-05))
0.000508625   	((1.404867e-02 1.080625e+01 1.976460e-02) (2.795427e-04 1.545137e-02 -7.727029e-04)) ((1.532825e-03 -1.979225e-01 3.475864e-03) (1.682928e-05 1.054826e-03 3.533393e-05))
0.000513998   	((1.370032e-02 1.081598e+01 1.902356e-02) (2.755660e-04 1.544363e-02 -7.466831e-04)) ((1.462436e-03 -1.979515e-01 3.239279e-03) (1.672639e-05 1.068760e-03 3.474888e-05))
0.000519351   	((1.337590e-02 1.082459e+01 1.826502e-02) (2.711713e-04 1.543763e-02 -7.209877e-04)) ((1.403630e-03 -1.979732e-01 3.035385e-03) (1.660848e-05 1.082457e-03 3.414423e-05))
0.000524689   	((1.311248e-02 1.083248e+01 1.772015e-02) (2.658807e-04 1.543288e-02 -6.958579e-04)) ((1.343784e-03 -1.979992e-01 2.838629e-03) (1.648326e-05 1.095925e-03 3.353377e-05))
0.000530017   	((1.293882e-02 1.084072e+01 1.739514e-02) (2.593345e-04 1.542937e-02 -6.715078e-04)) ((1.288566e-03 -1.980456e-01 2.662653e-03) (1.635216e-05 1.109224e-03 3.292280e-05))
0.000535341   	((1.262435e-02 1.084815e+01 1.676252e-02) (2.518499e-04 1.542778e-02 -6.482936e-04)) ((1.226182e-03 -1.980893e-01 2.468016e-03) (1.621868e-05 1.122368e-03 3.231696e-05))
0.000540664   	((1.238441e-02 1.085488e+01 1.623997e-02) (2.434466e-04 1.542794e-02 -6.258650e-04)) ((1.175923e-03 -1.981280e-01 2.307132e-03) (1.607729e-05 1.135390e-03 3.170009e-05))
0.000545989   	((1.213237e-02 1.086020e+01 1.574476e-02) (2.347417e-04 1.542950e-02 -6.047878e-04)) ((1.113910e-03 -1.981397e-01 2.125382e-03) (1.594322e-05 1.148295e-03 3.111414e-05))
0.000551318   	((1.195043e-02 1.086602e+01 1.534709e-02) (2.255318e-04 1.543223e-02 -5.858292e-04)) ((1.062484e-03 -1.981817e-01 1.976978e-03) (1.581347e-05 1.161099e-03 3.055367e-05))
0.000556652   	((1.192247e-02 1.087189e+01 1.533580e-02) (2.158817e-04 1.543592e-02 -5.682108e-04)) ((1.026947e-03 -1.982366e-01 1.882834e-03) (1.567550e-05 1.173784e-03 2.998728e-05))
0.000561995   	((1.182033e-02 1.087701e+01 1.510212e-02) (2.060228e-04 1.544121e-02 -5.517613e-04)) ((9.892692e-04 -1.982845e-01 1.775578e-03) (1.554541e-05 1.186336e-03 2.944505e-05))
0.000567348   	((1.181684e-02 1.088231e+01 1.504407e-02) (1.959012e-04 1.544799e-02 -5.367102e-04)) ((9.586254e-04 -1.983442e-01 1.690400e-03) (1.543213e-05 1.198792e-03 2.895435e-05))
0.00057271    	((1.158173e-02 1.088628e+01 1.463281e-02) (1.855407e-04 1.545583e-02 -5.230468e-04)) ((9.229937e-04 -1.983850e-01 1.595906e-03) (1.534133e-05 1.211111e-03 2.853095e-05))
0.000578086   	((1.146075e-02 1.089070e+01 1.446795e-02) (1.751892e-04 1.546474e-02 -5.102699e-04)) ((8.921097e-04 -1.984491e-01 1.519412e-03) (1.525899e-05 1.223291e-03 2.813400e-05))
0.000583474   	((1.141200e-02 1.089457e+01 1.441251e-02) (1.648343e-04 1.547434e-02 -4.983343e-04)) ((8.641006e-04 -1.985068e-01 1.449580e-03) (1.518096e-05 1.235345e-03 2.775714e-05))
0.000588876   	((1.134177e-02 1.089791e+01 1.425514e-02) (1.548270e-04 1.548528e-02 -4.871869e-04)) ((8.310154e-04 -1.985682e-01 1.365848e-03) (1.511709e-05 1.247303e-03 2.741958e-05))
0.000594291   	((1.135051e-02 1.090118e+01 1.423834e-02) (1.450759e-04 1.549757e-02 -4.766121e-04)) ((8.108209e-04 -1.986364e-01 1.313427e-03) (1.506347e-05 1.259178e-03 2.711069e-05))
0.000599719   	((1.142275e-02 1.090477e+01 1.436082e-02) (1.356154e-04 1.551069e-02 -4.664954e-04)) ((7.963403e-04 -1.987190e-01 1.277702e-03) (1.501753e-05 1.270993e-03 2.682412e-05))
0.00060516    	((1.142096e-02 1.090749e+01 1.435422e-02) (1.265370e-04 1.552473e-02 -4.568284e-04)) ((7.699749e-04 -1.987866e-01 1.219241e-03) (1.497394e-05 1.282744e-03 2.655167e-05))
0.000610616   	((1.136965e-02 1.090998e+01 1.424746e-02) (1.179123e-04 1.554009e-02 -4.478140e-04)) ((7.466612e-04 -1.988603e-01 1.167225e-03) (1.493969e-05 1.294460e-03 2.631071e-05))
0.000616085   	((1.125030e-02 1.091196e+01 1.400021e-02) (1.096168e-04 1.555641e-02 -4.398201e-04)) ((7.223410e-04 -1.989280e-01 1.105449e-03) (1.490740e-05 1.306092e-03 2.608287e-05))
0.000621568   	((1.132111e-02 1.091369e+01 1.409872e-02) (1.014642e-04 1.557352e-02 -4.326651e-04)) ((7.148704e-04 -1.989984e-01 1.092818e-03) (1.487508e-05 1.317644e-03 2.585631e-05))
0.000627066   	((1.146986e-02 1.091507e+01 1.426669e-02) (9.367818e-05 1.559140e-02 -4.263420e-04)) ((7.051006e-04 -1.990695e-01 1.071739e-03) (1.483492e-05 1.329142e-03 2.561455e-05))
0.000632579   	((1.161146e-02 1.091594e+01 1.444761e-02) (8.651781e-05 1.561055e-02 -4.207967e-04)) ((6.939663e-04 -1.991279e-01 1.050465e-03) (1.479890e-05 1.340598e-03 2.538350e-05))
0.000638106   	((1.152918e-02 1.091682e+01 1.430438e-02) (7.976217e-05 1.563046e-02 -4.160984e-04)) ((6.723330e-04 -1.991963e-01 1.004650e-03) (1.477832e-05 1.351981e-03 2.519053e-05))
0.000643649   	((1.146463e-02 1.091722e+01 1.415249e-02) (7.336047e-05 1.565099e-02 -4.120096e-04)) ((6.582039e-04 -1.992613e-01 9.763766e-04) (1.475988e-05 1.363291e-03 2.500347e-05))
0.000649207   	((1.173228e-02 1.091685e+01 1.458235e-02) (6.731171e-05 1.567205e-02 -4.090167e-04)) ((6.553308e-04 -1.993148e-01 9.783778e-04) (1.475011e-05 1.374566e-03 2.483805e-05))
0.000654781   	((1.162276e-02 1.091655e+01 1.439705e-02) (6.151013e-05 1.569349e-02 -4.075319e-04)) ((6.365677e-04 -1.993745e-01 9.429652e-04) (1.475306e-05 1.385791e-03 2.470615e-05))
0.000660369   	((1.177232e-02 1.091596e+01 1.459028e-02) (5.600712e-05 1.571572e-02 -4.072193e-04)) ((6.430330e-04 -1.994349e-01 9.582318e-04) (1.476308e-05 1.396935e-03 2.459676e-05))
0.000665972   	((1.185664e-02 1.091509e+01 1.465347e-02) (5.077344e-05 1.573864e-02 -4.080594e-04)) ((6.372565e-04 -1.994948e-01 9.496492e-04) (1.477687e-05 1.407973e-03 2.449560e-05))
0.00067159    	((1.198617e-02 1.091423e+01 1.481487e-02) (4.568913e-05 1.576213e-02 -4.097264e-04)) ((6.326529e-04 -1.995568e-01 9.433599e-04) (1.479022e-05 1.418918e-03 2.439119e-05))
0.000677221   	((1.219163e-02 1.091363e+01 1.509441e-02) (4.060807e-05 1.578637e-02 -4.122007e-04)) ((6.390696e-04 -1.996334e-01 9.608600e-04) (1.481987e-05 1.429761e-03 2.432082e-05))
0.000682865   	((1.244983e-02 1.091216e+01 1.539140e-02) (3.555614e-05 1.581137e-02 -4.154773e-04)) ((6.519068e-04 -1.996930e-01 9.901684e-04) (1.485075e-05 1.440521e-03 2.425891e-05))
0.00068852    	((1.262010e-02 1.091016e+01 1.555017e-02) (3.037417e-05 1.583693e-02 -4.199621e-04)) ((6.619194e-04 -1.997430e-01 1.013420e-03) (1.488726e-05 1.451186e-03 2.420866e-05))
0.000694184   	((1.275978e-02 1.090780e+01 1.571224e-02) (2.525162e-05 1.586312e-02 -4.250845e-04)) ((6.743210e-04 -1.997929e-01 1.038047e-03) (1.491407e-05 1.461729e-03 2.414040e-05))
0.000699858   	((1.286983e-02 1.090512e+01 1.583201e-02) (2.022894e-05 1.588979e-02 -4.308360e-04)) ((6.868022e-04 -1.998367e-01 1.065996e-03) (1.494331e-05 1.472169e-03 2.407366e-05))
0.000705539   	((1.319096e-02 1.090289e+01 1.624324e-02) (1.541453e-05 1.591701e-02 -4.369805e-04)) ((7.036825e-04 -1.998934e-01 1.104064e-03) (1.497672e-05 1.482462e-03 2.401526e-05))
0.000711229   	((1.340894e-02 1.089999e+01 1.647104e-02) (1.055593e-05 1.594458e-02 -4.436553e-04)) ((7.156814e-04 -1.999406e-01 1.130399e-03) (1.500592e-05 1.492607e-03 2.394887e-05))
0.000716925   	((1.380040e-02 1.089680e+01 1.692174e-02) (5.626062e-06 1.597240e-02 -4.508067e-04)) ((7.446152e-04 -1.999884e-01 1.189667e-03) (1.503691e-05 1.502608e-03 2.388809e-05))
0.000722628   	((1.401978e-02 1.089304e+01 1.720044e-02) (5.891778e-07 1.600067e-02 -4.578565e-04)) ((7.701164e-04 -2.000227e-01 1.239572e-03) (1.507223e-05 1.512482e-03 2.384051e-05))