# y+ ()       
# Time        	patch         	min           	max           	average       
0             	walls	0.000000e+00	0.000000e+00	0.000000e+00
0             	innerCylinder	0.000000e+00	0.000000e+00	0.000000e+00
0             	innerCylinder_slave	0.000000e+00	0.000000e+00	0.000000e+00
0             	propellerTip	6.853713e-01	9.152659e+00	2.823149e+00
6.8679e-05    	walls	6.042816e-02	1.319943e+01	3.409522e+00
6.8679e-05    	innerCylinder	0.000000e+00	0.000000e+00	0.000000e+00
6.8679e-05    	innerCylinder_slave	0.000000e+00	0.000000e+00	0.000000e+00
6.8679e-05    	propellerTip	8.894919e-01	1.239185e+03	2.236887e+01
0.000174      	walls	3.130087e-02	1.401951e+01	3.636023e+00
0.000174      	innerCylinder	0.000000e+00	0.000000e+00	0.000000e+00
0.000174      	innerCylinder_slave	0.000000e+00	0.000000e+00	0.000000e+00
0.000174      	propellerTip	1.007044e+00	5.549976e+02	2.078743e+01
0.000292153   	walls	4.961213e-02	1.500778e+01	3.900340e+00
0.000292153   	innerCylinder	0.000000e+00	0.000000e+00	0.000000e+00
0.000292153   	innerCylinder_slave	0.000000e+00	0.000000e+00	0.000000e+00
0.000292153   	propellerTip	1.075420e+00	3.021691e+02	1.965923e+01
0.000418463   	walls	7.003933e-02	1.604903e+01	4.178234e+00
0.000418463   	innerCylinder	0.000000e+00	0.000000e+00	0.000000e+00
0.000418463   	innerCylinder_slave	0.000000e+00	0.000000e+00	0.000000e+00
0.000418463   	propellerTip	1.178304e+00	1.683428e+02	1.892904e+01
0.000549389   	walls	9.062653e-02	1.706583e+01	4.454636e+00
0.000549389   	innerCylinder	0.000000e+00	0.000000e+00	0.000000e+00
0.000549389   	innerCylinder_slave	0.000000e+00	0.000000e+00	0.000000e+00
0.000549389   	propellerTip	1.417672e+00	1.238584e+02	1.847905e+01
0.000681015   	walls	2.529807e-02	1.802431e+01	4.719454e+00
0.000681015   	innerCylinder	0.000000e+00	0.000000e+00	0.000000e+00
0.000681015   	innerCylinder_slave	0.000000e+00	0.000000e+00	0.000000e+00
0.000681015   	propellerTip	1.745458e+00	1.173909e+02	1.843772e+01
0.000813182   	walls	6.945523e-02	1.892876e+01	4.973785e+00
0.000813182   	innerCylinder	0.000000e+00	0.000000e+00	0.000000e+00
0.000813182   	innerCylinder_slave	0.000000e+00	0.000000e+00	0.000000e+00
0.000813182   	propellerTip	2.076304e+00	1.152925e+02	1.882284e+01
0.000946567   	walls	6.275333e-02	1.978682e+01	5.218744e+00
0.000946567   	innerCylinder	0.000000e+00	0.000000e+00	0.000000e+00
0.000946567   	innerCylinder_slave	0.000000e+00	0.000000e+00	0.000000e+00
0.000946567   	propellerTip	2.262148e+00	1.363831e+02	1.937159e+01
0.00108137    	walls	2.656102e-02	2.061908e+01	5.455506e+00
0.00108137    	innerCylinder	0.000000e+00	0.000000e+00	0.000000e+00
0.00108137    	innerCylinder_slave	0.000000e+00	0.000000e+00	0.000000e+00
0.00108137    	propellerTip	2.239232e+00	1.406084e+02	1.990146e+01
0.00121687    	walls	7.899026e-02	2.141620e+01	5.683643e+00
0.00121687    	innerCylinder	0.000000e+00	0.000000e+00	0.000000e+00
0.00121687    	innerCylinder_slave	0.000000e+00	0.000000e+00	0.000000e+00
0.00121687    	propellerTip	2.229756e+00	1.408287e+02	2.035006e+01
0.00135222    	walls	1.300245e-01	2.216928e+01	5.902242e+00
0.00135222    	innerCylinder	0.000000e+00	0.000000e+00	0.000000e+00
0.00135222    	innerCylinder_slave	0.000000e+00	0.000000e+00	0.000000e+00
0.00135222    	propellerTip	2.239472e+00	1.441148e+02	2.070351e+01
0.0014869     	walls	8.444295e-02	2.287579e+01	6.111157e+00
0.0014869     	innerCylinder	0.000000e+00	0.000000e+00	0.000000e+00
0.0014869     	innerCylinder_slave	0.000000e+00	0.000000e+00	0.000000e+00
0.0014869     	propellerTip	2.278250e+00	1.437726e+02	2.098218e+01
0.00162079    	walls	1.499037e-01	2.354364e+01	6.311761e+00
0.00162079    	innerCylinder	0.000000e+00	0.000000e+00	0.000000e+00
0.00162079    	innerCylinder_slave	0.000000e+00	0.000000e+00	0.000000e+00
0.00162079    	propellerTip	2.353978e+00	1.423153e+02	2.120335e+01
0.00175417    	walls	1.435348e-01	2.417441e+01	6.505071e+00
0.00175417    	innerCylinder	0.000000e+00	0.000000e+00	0.000000e+00
0.00175417    	innerCylinder_slave	0.000000e+00	0.000000e+00	0.000000e+00
0.00175417    	propellerTip	2.472307e+00	1.404749e+02	2.138462e+01
0.00188724    	walls	4.540337e-02	2.477308e+01	6.691757e+00
0.00188724    	innerCylinder	0.000000e+00	0.000000e+00	0.000000e+00
0.00188724    	innerCylinder_slave	0.000000e+00	0.000000e+00	0.000000e+00
0.00188724    	propellerTip	2.633967e+00	1.423004e+02	2.153577e+01
0.00202015    	walls	6.767481e-02	2.534610e+01	6.873296e+00
0.00202015    	innerCylinder	0.000000e+00	0.000000e+00	0.000000e+00
0.00202015    	innerCylinder_slave	0.000000e+00	0.000000e+00	0.000000e+00
0.00202015    	propellerTip	2.831414e+00	1.435369e+02	2.166314e+01
0.00215299    	walls	7.631805e-02	2.588764e+01	7.049095e+00
0.00215299    	innerCylinder	0.000000e+00	0.000000e+00	0.000000e+00
0.00215299    	innerCylinder_slave	0.000000e+00	0.000000e+00	0.000000e+00
0.00215299    	propellerTip	3.053183e+00	1.441252e+02	2.177354e+01
0.00228577    	walls	9.495098e-02	2.640685e+01	7.220553e+00
0.00228577    	innerCylinder	0.000000e+00	0.000000e+00	0.000000e+00
0.00228577    	innerCylinder_slave	0.000000e+00	0.000000e+00	0.000000e+00
0.00228577    	propellerTip	3.259746e+00	1.442491e+02	2.187226e+01
0.00241847    	walls	1.180008e-01	2.689993e+01	7.386757e+00
0.00241847    	innerCylinder	0.000000e+00	0.000000e+00	0.000000e+00
0.00241847    	innerCylinder_slave	0.000000e+00	0.000000e+00	0.000000e+00
0.00241847    	propellerTip	3.261588e+00	1.439696e+02	2.196342e+01
0.00255114    	walls	1.082390e-01	2.736939e+01	7.548634e+00
0.00255114    	innerCylinder	0.000000e+00	0.000000e+00	0.000000e+00
0.00255114    	innerCylinder_slave	0.000000e+00	0.000000e+00	0.000000e+00
0.00255114    	propellerTip	3.270198e+00	1.434626e+02	2.204957e+01
0.00268375    	walls	1.449314e-01	2.782074e+01	7.706420e+00
0.00268375    	innerCylinder	0.000000e+00	0.000000e+00	0.000000e+00
0.00268375    	innerCylinder_slave	0.000000e+00	0.000000e+00	0.000000e+00
0.00268375    	propellerTip	3.283817e+00	1.428221e+02	2.213339e+01
0.00281632    	walls	7.020572e-03	2.826849e+01	7.859983e+00
0.00281632    	innerCylinder	0.000000e+00	0.000000e+00	0.000000e+00
0.00281632    	innerCylinder_slave	0.000000e+00	0.000000e+00	0.000000e+00
0.00281632    	propellerTip	3.303515e+00	1.421241e+02	2.221695e+01
0.0029489     	walls	2.084228e-01	2.870899e+01	8.010342e+00
0.0029489     	innerCylinder	0.000000e+00	0.000000e+00	0.000000e+00
0.0029489     	innerCylinder_slave	0.000000e+00	0.000000e+00	0.000000e+00
0.0029489     	propellerTip	3.330014e+00	1.414177e+02	2.230023e+01
0.00308147    	walls	2.108074e-01	2.913561e+01	8.157074e+00
0.00308147    	innerCylinder	0.000000e+00	0.000000e+00	0.000000e+00
0.00308147    	innerCylinder_slave	0.000000e+00	0.000000e+00	0.000000e+00
0.00308147    	propellerTip	3.361880e+00	1.406614e+02	2.238447e+01
0.00321393    	walls	1.466952e-01	2.954663e+01	8.300398e+00
0.00321393    	innerCylinder	0.000000e+00	0.000000e+00	0.000000e+00
0.00321393    	innerCylinder_slave	0.000000e+00	0.000000e+00	0.000000e+00
0.00321393    	propellerTip	3.398241e+00	1.399416e+02	2.246794e+01
0.00334617    	walls	1.245942e-01	2.993003e+01	8.440650e+00
0.00334617    	innerCylinder	0.000000e+00	0.000000e+00	0.000000e+00
0.00334617    	innerCylinder_slave	0.000000e+00	0.000000e+00	0.000000e+00
0.00334617    	propellerTip	3.439061e+00	1.393134e+02	2.255079e+01
0.00347818    	walls	6.817513e-02	3.030034e+01	8.577324e+00
0.00347818    	innerCylinder	0.000000e+00	0.000000e+00	0.000000e+00
0.00347818    	innerCylinder_slave	0.000000e+00	0.000000e+00	0.000000e+00
0.00347818    	propellerTip	3.484737e+00	1.387582e+02	2.263177e+01
0.00360994    	walls	1.123092e-01	3.065634e+01	8.711328e+00
0.00360994    	innerCylinder	0.000000e+00	0.000000e+00	0.000000e+00
0.00360994    	innerCylinder_slave	0.000000e+00	0.000000e+00	0.000000e+00
0.00360994    	propellerTip	3.505662e+00	1.383875e+02	2.271062e+01
0.00374152    	walls	2.463293e-01	3.100116e+01	8.842623e+00
0.00374152    	innerCylinder	0.000000e+00	0.000000e+00	0.000000e+00
0.00374152    	innerCylinder_slave	0.000000e+00	0.000000e+00	0.000000e+00
0.00374152    	propellerTip	3.502575e+00	1.380169e+02	2.278668e+01
0.00387297    	walls	1.572839e-01	3.133543e+01	8.971042e+00
0.00387297    	innerCylinder	0.000000e+00	0.000000e+00	0.000000e+00
0.00387297    	innerCylinder_slave	0.000000e+00	0.000000e+00	0.000000e+00
0.00387297    	propellerTip	3.525932e+00	1.376063e+02	2.285882e+01
0.00400435    	walls	1.327867e-01	3.165880e+01	9.097114e+00
0.00400435    	innerCylinder	0.000000e+00	0.000000e+00	0.000000e+00
0.00400435    	innerCylinder_slave	0.000000e+00	0.000000e+00	0.000000e+00
0.00400435    	propellerTip	3.562966e+00	1.371266e+02	2.292639e+01
0.00413575    	walls	2.840031e-02	3.197155e+01	9.221021e+00
0.00413575    	innerCylinder	0.000000e+00	0.000000e+00	0.000000e+00
0.00413575    	innerCylinder_slave	0.000000e+00	0.000000e+00	0.000000e+00
0.00413575    	propellerTip	3.597089e+00	1.364844e+02	2.298847e+01
0.0042672     	walls	9.217500e-02	3.236089e+01	9.343154e+00
0.0042672     	innerCylinder	0.000000e+00	0.000000e+00	0.000000e+00
0.0042672     	innerCylinder_slave	0.000000e+00	0.000000e+00	0.000000e+00
0.0042672     	propellerTip	3.629456e+00	1.357149e+02	2.304072e+01
0.00439873    	walls	1.590798e-01	3.280023e+01	9.463185e+00
0.00439873    	innerCylinder	0.000000e+00	0.000000e+00	0.000000e+00
0.00439873    	innerCylinder_slave	0.000000e+00	0.000000e+00	0.000000e+00
0.00439873    	propellerTip	3.661804e+00	1.347279e+02	2.307856e+01
0.00453036    	walls	2.326862e-01	3.323036e+01	9.581603e+00
0.00453036    	innerCylinder	0.000000e+00	0.000000e+00	0.000000e+00
0.00453036    	innerCylinder_slave	0.000000e+00	0.000000e+00	0.000000e+00
0.00453036    	propellerTip	3.695187e+00	1.334699e+02	2.309975e+01
0.00466214    	walls	3.330185e-02	3.365147e+01	9.698150e+00
0.00466214    	innerCylinder	0.000000e+00	0.000000e+00	0.000000e+00
0.00466214    	innerCylinder_slave	0.000000e+00	0.000000e+00	0.000000e+00
0.00466214    	propellerTip	3.729508e+00	1.320250e+02	2.309914e+01
0.0047941     	walls	3.038862e-01	3.406323e+01	9.813608e+00
0.0047941     	innerCylinder	0.000000e+00	0.000000e+00	0.000000e+00
0.0047941     	innerCylinder_slave	0.000000e+00	0.000000e+00	0.000000e+00
0.0047941     	propellerTip	3.762624e+00	1.301806e+02	2.307127e+01
0.00492629    	walls	1.334307e-01	3.446504e+01	9.927403e+00
0.00492629    	innerCylinder	0.000000e+00	0.000000e+00	0.000000e+00
0.00492629    	innerCylinder_slave	0.000000e+00	0.000000e+00	0.000000e+00
0.00492629    	propellerTip	3.795750e+00	1.279283e+02	2.301043e+01
0.00505873    	walls	1.543570e-01	3.485658e+01	1.004012e+01
0.00505873    	innerCylinder	0.000000e+00	0.000000e+00	0.000000e+00
0.00505873    	innerCylinder_slave	0.000000e+00	0.000000e+00	0.000000e+00
0.00505873    	propellerTip	3.828344e+00	1.251210e+02	2.291183e+01
0.00519143    	walls	7.837695e-02	3.523690e+01	1.015178e+01
0.00519143    	innerCylinder	0.000000e+00	0.000000e+00	0.000000e+00
0.00519143    	innerCylinder_slave	0.000000e+00	0.000000e+00	0.000000e+00
0.00519143    	propellerTip	3.860113e+00	1.218508e+02	2.277203e+01
0.00532436    	walls	1.486134e-01	3.560453e+01	1.026254e+01
0.00532436    	innerCylinder	0.000000e+00	0.000000e+00	0.000000e+00
0.00532436    	innerCylinder_slave	0.000000e+00	0.000000e+00	0.000000e+00
0.00532436    	propellerTip	3.890631e+00	1.183530e+02	2.258730e+01
0.00545746    	walls	1.964596e-01	3.595941e+01	1.037282e+01
0.00545746    	innerCylinder	0.000000e+00	0.000000e+00	0.000000e+00
0.00545746    	innerCylinder_slave	0.000000e+00	0.000000e+00	0.000000e+00
0.00545746    	propellerTip	3.867156e+00	1.145471e+02	2.235882e+01
0.00559068    	walls	9.930799e-02	3.630238e+01	1.048274e+01
0.00559068    	innerCylinder	0.000000e+00	0.000000e+00	0.000000e+00
0.00559068    	innerCylinder_slave	0.000000e+00	0.000000e+00	0.000000e+00
0.00559068    	propellerTip	3.836683e+00	1.104053e+02	2.208954e+01
0.00572395    	walls	4.316282e-02	3.663448e+01	1.059156e+01
0.00572395    	innerCylinder	0.000000e+00	0.000000e+00	0.000000e+00
0.00572395    	innerCylinder_slave	0.000000e+00	0.000000e+00	0.000000e+00
0.00572395    	propellerTip	3.800254e+00	1.058957e+02	2.178354e+01
0.00585722    	walls	9.158902e-03	3.695614e+01	1.069880e+01
0.00585722    	innerCylinder	0.000000e+00	0.000000e+00	0.000000e+00
0.00585722    	innerCylinder_slave	0.000000e+00	0.000000e+00	0.000000e+00
0.00585722    	propellerTip	3.756296e+00	1.044769e+02	2.145576e+01
0.00599047    	walls	3.530143e-01	3.726087e+01	1.080529e+01
0.00599047    	innerCylinder	0.000000e+00	0.000000e+00	0.000000e+00
0.00599047    	innerCylinder_slave	0.000000e+00	0.000000e+00	0.000000e+00
0.00599047    	propellerTip	3.706958e+00	1.040850e+02	2.112028e+01
0.00612361    	walls	2.063683e-01	3.758900e+01	1.091039e+01
0.00612361    	innerCylinder	0.000000e+00	0.000000e+00	0.000000e+00
0.00612361    	innerCylinder_slave	0.000000e+00	0.000000e+00	0.000000e+00
0.00612361    	propellerTip	3.660996e+00	1.036682e+02	2.078882e+01
0.00625656    	walls	1.878195e-01	3.790603e+01	1.101434e+01
0.00625656    	innerCylinder	0.000000e+00	0.000000e+00	0.000000e+00
0.00625656    	innerCylinder_slave	0.000000e+00	0.000000e+00	0.000000e+00
0.00625656    	propellerTip	3.406632e+00	1.032462e+02	2.047572e+01
0.0063893     	walls	2.415910e-01	3.821131e+01	1.111698e+01
0.0063893     	innerCylinder	0.000000e+00	0.000000e+00	0.000000e+00
0.0063893     	innerCylinder_slave	0.000000e+00	0.000000e+00	0.000000e+00
0.0063893     	propellerTip	3.145436e+00	1.028211e+02	2.019205e+01
0.00652178    	walls	3.099071e-02	3.850601e+01	1.121878e+01
0.00652178    	innerCylinder	0.000000e+00	0.000000e+00	0.000000e+00
0.00652178    	innerCylinder_slave	0.000000e+00	0.000000e+00	0.000000e+00
0.00652178    	propellerTip	2.927396e+00	1.024246e+02	1.994900e+01
0.00665396    	walls	1.996756e-01	3.879023e+01	1.131937e+01
0.00665396    	innerCylinder	0.000000e+00	0.000000e+00	0.000000e+00
0.00665396    	innerCylinder_slave	0.000000e+00	0.000000e+00	0.000000e+00
0.00665396    	propellerTip	2.806615e+00	1.020613e+02	1.975447e+01
0.00678582    	walls	1.122619e-01	3.906518e+01	1.141876e+01
0.00678582    	innerCylinder	0.000000e+00	0.000000e+00	0.000000e+00
0.00678582    	innerCylinder_slave	0.000000e+00	0.000000e+00	0.000000e+00
0.00678582    	propellerTip	2.737788e+00	1.017158e+02	1.961209e+01
0.00691735    	walls	4.122954e-01	3.932883e+01	1.151740e+01
0.00691735    	innerCylinder	0.000000e+00	0.000000e+00	0.000000e+00
0.00691735    	innerCylinder_slave	0.000000e+00	0.000000e+00	0.000000e+00
0.00691735    	propellerTip	2.634215e+00	1.013834e+02	1.952498e+01
0.00704858    	walls	8.728778e-02	3.958480e+01	1.161418e+01
0.00704858    	innerCylinder	0.000000e+00	0.000000e+00	0.000000e+00
0.00704858    	innerCylinder_slave	0.000000e+00	0.000000e+00	0.000000e+00
0.00704858    	propellerTip	2.520679e+00	1.010842e+02	1.949112e+01
0.00717968    	walls	1.555582e-01	3.983410e+01	1.170981e+01
0.00717968    	innerCylinder	0.000000e+00	0.000000e+00	0.000000e+00
0.00717968    	innerCylinder_slave	0.000000e+00	0.000000e+00	0.000000e+00
0.00717968    	propellerTip	2.455651e+00	1.007037e+02	1.950763e+01
0.00731068    	walls	2.491626e-01	4.007848e+01	1.180415e+01
0.00731068    	innerCylinder	0.000000e+00	0.000000e+00	0.000000e+00
0.00731068    	innerCylinder_slave	0.000000e+00	0.000000e+00	0.000000e+00
0.00731068    	propellerTip	2.440389e+00	1.003484e+02	1.957051e+01
0.00744158    	walls	2.611927e-01	4.031312e+01	1.189762e+01
0.00744158    	innerCylinder	0.000000e+00	0.000000e+00	0.000000e+00
0.00744158    	innerCylinder_slave	0.000000e+00	0.000000e+00	0.000000e+00
0.00744158    	propellerTip	2.455980e+00	1.000560e+02	1.967460e+01
0.00757238    	walls	3.321690e-01	4.053848e+01	1.199032e+01
0.00757238    	innerCylinder	0.000000e+00	0.000000e+00	0.000000e+00
0.00757238    	innerCylinder_slave	0.000000e+00	0.000000e+00	0.000000e+00
0.00757238    	propellerTip	2.490346e+00	9.973109e+01	1.981518e+01
0.00770304    	walls	1.093630e-01	4.076390e+01	1.208180e+01
0.00770304    	innerCylinder	0.000000e+00	0.000000e+00	0.000000e+00
0.00770304    	innerCylinder_slave	0.000000e+00	0.000000e+00	0.000000e+00
0.00770304    	propellerTip	2.540721e+00	9.946897e+01	1.998755e+01
0.00783353    	walls	4.466529e-01	4.098457e+01	1.217282e+01
0.00783353    	innerCylinder	0.000000e+00	0.000000e+00	0.000000e+00
0.00783353    	innerCylinder_slave	0.000000e+00	0.000000e+00	0.000000e+00
0.00783353    	propellerTip	2.619851e+00	9.924693e+01	2.018698e+01
0.00796385    	walls	1.458962e-01	4.120024e+01	1.226293e+01
0.00796385    	innerCylinder	0.000000e+00	0.000000e+00	0.000000e+00
0.00796385    	innerCylinder_slave	0.000000e+00	0.000000e+00	0.000000e+00
0.00796385    	propellerTip	2.720732e+00	9.946359e+01	2.040801e+01
0.00809398    	walls	3.156819e-01	4.141061e+01	1.235246e+01
0.00809398    	innerCylinder	0.000000e+00	0.000000e+00	0.000000e+00
0.00809398    	innerCylinder_slave	0.000000e+00	0.000000e+00	0.000000e+00
0.00809398    	propellerTip	2.669180e+00	1.032137e+02	2.064433e+01
0.00822391    	walls	1.831306e-01	4.161530e+01	1.244143e+01
0.00822391    	innerCylinder	0.000000e+00	0.000000e+00	0.000000e+00
0.00822391    	innerCylinder_slave	0.000000e+00	0.000000e+00	0.000000e+00
0.00822391    	propellerTip	2.629033e+00	1.071282e+02	2.089046e+01
0.00835372    	walls	1.049834e-01	4.181372e+01	1.252941e+01
0.00835372    	innerCylinder	0.000000e+00	0.000000e+00	0.000000e+00
0.00835372    	innerCylinder_slave	0.000000e+00	0.000000e+00	0.000000e+00
0.00835372    	propellerTip	2.611986e+00	1.112321e+02	2.113988e+01
0.00848337    	walls	2.048703e-01	4.200480e+01	1.261596e+01
0.00848337    	innerCylinder	0.000000e+00	0.000000e+00	0.000000e+00
0.00848337    	innerCylinder_slave	0.000000e+00	0.000000e+00	0.000000e+00
0.00848337    	propellerTip	2.619052e+00	1.155244e+02	2.138752e+01
0.00861314    	walls	9.836154e-02	4.219693e+01	1.270079e+01
0.00861314    	innerCylinder	0.000000e+00	0.000000e+00	0.000000e+00
0.00861314    	innerCylinder_slave	0.000000e+00	0.000000e+00	0.000000e+00
0.00861314    	propellerTip	2.649183e+00	1.199868e+02	2.163089e+01
0.00874338    	walls	2.624044e-01	4.238203e+01	1.278362e+01
0.00874338    	innerCylinder	0.000000e+00	0.000000e+00	0.000000e+00
0.00874338    	innerCylinder_slave	0.000000e+00	0.000000e+00	0.000000e+00
0.00874338    	propellerTip	2.699206e+00	1.245881e+02	2.186617e+01
0.00887443    	walls	7.483404e-02	4.255860e+01	1.286431e+01
0.00887443    	innerCylinder	0.000000e+00	0.000000e+00	0.000000e+00
0.00887443    	innerCylinder_slave	0.000000e+00	0.000000e+00	0.000000e+00
0.00887443    	propellerTip	2.765394e+00	1.292912e+02	2.209002e+01
0.00900671    	walls	1.828034e-01	4.272268e+01	1.294284e+01
0.00900671    	innerCylinder	0.000000e+00	0.000000e+00	0.000000e+00
0.00900671    	innerCylinder_slave	0.000000e+00	0.000000e+00	0.000000e+00
0.00900671    	propellerTip	2.843358e+00	1.340079e+02	2.230091e+01
0.00914061    	walls	1.097448e-01	4.287748e+01	1.301927e+01
0.00914061    	innerCylinder	0.000000e+00	0.000000e+00	0.000000e+00
0.00914061    	innerCylinder_slave	0.000000e+00	0.000000e+00	0.000000e+00
0.00914061    	propellerTip	2.928416e+00	1.386274e+02	2.249298e+01
0.00927637    	walls	2.355685e-01	4.302061e+01	1.309365e+01
0.00927637    	innerCylinder	0.000000e+00	0.000000e+00	0.000000e+00
0.00927637    	innerCylinder_slave	0.000000e+00	0.000000e+00	0.000000e+00
0.00927637    	propellerTip	3.014753e+00	1.428643e+02	2.266062e+01
0.00941413    	walls	1.243333e-01	4.315805e+01	1.316606e+01
0.00941413    	innerCylinder	0.000000e+00	0.000000e+00	0.000000e+00
0.00941413    	innerCylinder_slave	0.000000e+00	0.000000e+00	0.000000e+00
0.00941413    	propellerTip	3.049634e+00	1.467735e+02	2.279733e+01
0.00955427    	walls	5.406152e-02	4.328841e+01	1.323694e+01
0.00955427    	innerCylinder	0.000000e+00	0.000000e+00	0.000000e+00
0.00955427    	innerCylinder_slave	0.000000e+00	0.000000e+00	0.000000e+00
0.00955427    	propellerTip	3.111299e+00	1.502736e+02	2.290245e+01
0.00969676    	walls	1.510692e-01	4.340933e+01	1.330665e+01
0.00969676    	innerCylinder	0.000000e+00	0.000000e+00	0.000000e+00
0.00969676    	innerCylinder_slave	0.000000e+00	0.000000e+00	0.000000e+00
0.00969676    	propellerTip	3.175036e+00	1.530588e+02	2.297716e+01
0.00984125    	walls	2.175035e-01	4.352487e+01	1.337562e+01
0.00984125    	innerCylinder	0.000000e+00	0.000000e+00	0.000000e+00
0.00984125    	innerCylinder_slave	0.000000e+00	0.000000e+00	0.000000e+00
0.00984125    	propellerTip	3.232969e+00	1.551701e+02	2.302617e+01
0.00998739    	walls	8.748109e-02	4.363609e+01	1.344437e+01
0.00998739    	innerCylinder	0.000000e+00	0.000000e+00	0.000000e+00
0.00998739    	innerCylinder_slave	0.000000e+00	0.000000e+00	0.000000e+00
0.00998739    	propellerTip	3.286055e+00	1.566901e+02	2.305207e+01
0.0101348     	walls	2.692328e-01	4.374370e+01	1.351313e+01
0.0101348     	innerCylinder	0.000000e+00	0.000000e+00	0.000000e+00
0.0101348     	innerCylinder_slave	0.000000e+00	0.000000e+00	0.000000e+00
0.0101348     	propellerTip	3.337584e+00	1.574725e+02	2.305693e+01
0.0102828     	walls	9.184686e-02	4.384998e+01	1.358197e+01
0.0102828     	innerCylinder	0.000000e+00	0.000000e+00	0.000000e+00
0.0102828     	innerCylinder_slave	0.000000e+00	0.000000e+00	0.000000e+00
0.0102828     	propellerTip	3.389831e+00	1.574549e+02	2.304872e+01
0.0104311     	walls	3.120584e-01	4.395470e+01	1.365123e+01
0.0104311     	innerCylinder	0.000000e+00	0.000000e+00	0.000000e+00
0.0104311     	innerCylinder_slave	0.000000e+00	0.000000e+00	0.000000e+00
0.0104311     	propellerTip	3.443333e+00	1.568098e+02	2.303126e+01
0.010579      	walls	6.306720e-02	4.405741e+01	1.372020e+01
0.010579      	innerCylinder	0.000000e+00	0.000000e+00	0.000000e+00
0.010579      	innerCylinder_slave	0.000000e+00	0.000000e+00	0.000000e+00
0.010579      	propellerTip	3.480656e+00	1.558328e+02	2.300527e+01
0.010726      	walls	9.485950e-02	4.415788e+01	1.378881e+01
0.010726      	innerCylinder	0.000000e+00	0.000000e+00	0.000000e+00
0.010726      	innerCylinder_slave	0.000000e+00	0.000000e+00	0.000000e+00
0.010726      	propellerTip	3.518251e+00	1.546292e+02	2.296892e+01
0.0108722     	walls	9.957744e-02	4.425769e+01	1.385748e+01
0.0108722     	innerCylinder	0.000000e+00	0.000000e+00	0.000000e+00
0.0108722     	innerCylinder_slave	0.000000e+00	0.000000e+00	0.000000e+00
0.0108722     	propellerTip	3.555801e+00	1.532478e+02	2.292349e+01
0.0110177     	walls	3.209967e-01	4.435862e+01	1.392602e+01
0.0110177     	innerCylinder	0.000000e+00	0.000000e+00	0.000000e+00
0.0110177     	innerCylinder_slave	0.000000e+00	0.000000e+00	0.000000e+00
0.0110177     	propellerTip	3.584931e+00	1.517500e+02	2.286862e+01
0.0111625     	walls	2.257624e-01	4.453876e+01	1.399443e+01
0.0111625     	innerCylinder	0.000000e+00	0.000000e+00	0.000000e+00
0.0111625     	innerCylinder_slave	0.000000e+00	0.000000e+00	0.000000e+00
0.0111625     	propellerTip	3.608072e+00	1.501704e+02	2.280504e+01
0.0113069     	walls	1.816549e-01	4.471564e+01	1.406288e+01
0.0113069     	innerCylinder	0.000000e+00	0.000000e+00	0.000000e+00
0.0113069     	innerCylinder_slave	0.000000e+00	0.000000e+00	0.000000e+00
0.0113069     	propellerTip	3.586584e+00	1.485457e+02	2.273280e+01
0.011451      	walls	3.701453e-02	4.488649e+01	1.413139e+01
0.011451      	innerCylinder	0.000000e+00	0.000000e+00	0.000000e+00
0.011451      	innerCylinder_slave	0.000000e+00	0.000000e+00	0.000000e+00
0.011451      	propellerTip	3.544321e+00	1.469138e+02	2.265288e+01
0.0115948     	walls	1.782267e-01	4.505139e+01	1.420026e+01
0.0115948     	innerCylinder	0.000000e+00	0.000000e+00	0.000000e+00
0.0115948     	innerCylinder_slave	0.000000e+00	0.000000e+00	0.000000e+00
0.0115948     	propellerTip	3.504240e+00	1.452443e+02	2.256670e+01
0.0117384     	walls	2.204246e-01	4.521214e+01	1.426932e+01
0.0117384     	innerCylinder	0.000000e+00	0.000000e+00	0.000000e+00
0.0117384     	innerCylinder_slave	0.000000e+00	0.000000e+00	0.000000e+00
0.0117384     	propellerTip	3.468400e+00	1.435758e+02	2.247300e+01
0.0118819     	walls	4.782225e-01	4.537133e+01	1.433856e+01
0.0118819     	innerCylinder	0.000000e+00	0.000000e+00	0.000000e+00
0.0118819     	innerCylinder_slave	0.000000e+00	0.000000e+00	0.000000e+00
0.0118819     	propellerTip	3.438919e+00	1.419156e+02	2.237087e+01
0.0120252     	walls	4.289906e-01	4.552755e+01	1.440782e+01
0.0120252     	innerCylinder	0.000000e+00	0.000000e+00	0.000000e+00
0.0120252     	innerCylinder_slave	0.000000e+00	0.000000e+00	0.000000e+00
0.0120252     	propellerTip	3.416515e+00	1.403356e+02	2.225960e+01
0.0121685     	walls	4.948736e-01	4.567966e+01	1.447712e+01
0.0121685     	innerCylinder	0.000000e+00	0.000000e+00	0.000000e+00
0.0121685     	innerCylinder_slave	0.000000e+00	0.000000e+00	0.000000e+00
0.0121685     	propellerTip	3.400123e+00	1.388608e+02	2.214009e+01
0.0123116     	walls	3.579439e-01	4.582613e+01	1.454620e+01
0.0123116     	innerCylinder	0.000000e+00	0.000000e+00	0.000000e+00
0.0123116     	innerCylinder_slave	0.000000e+00	0.000000e+00	0.000000e+00
0.0123116     	propellerTip	3.387882e+00	1.374585e+02	2.201245e+01
0.0124547     	walls	3.386648e-01	4.596794e+01	1.461515e+01
0.0124547     	innerCylinder	0.000000e+00	0.000000e+00	0.000000e+00
0.0124547     	innerCylinder_slave	0.000000e+00	0.000000e+00	0.000000e+00
0.0124547     	propellerTip	3.378383e+00	1.361215e+02	2.187763e+01
0.0125976     	walls	2.513315e-01	4.611106e+01	1.468414e+01
0.0125976     	innerCylinder	0.000000e+00	0.000000e+00	0.000000e+00
0.0125976     	innerCylinder_slave	0.000000e+00	0.000000e+00	0.000000e+00
0.0125976     	propellerTip	3.370610e+00	1.348510e+02	2.173615e+01
0.0127403     	walls	1.325321e-01	4.625099e+01	1.475299e+01
0.0127403     	innerCylinder	0.000000e+00	0.000000e+00	0.000000e+00
0.0127403     	innerCylinder_slave	0.000000e+00	0.000000e+00	0.000000e+00
0.0127403     	propellerTip	3.363858e+00	1.335901e+02	2.158876e+01
0.0128829     	walls	1.208137e-01	4.638825e+01	1.482167e+01
0.0128829     	innerCylinder	0.000000e+00	0.000000e+00	0.000000e+00
0.0128829     	innerCylinder_slave	0.000000e+00	0.000000e+00	0.000000e+00
0.0128829     	propellerTip	3.357604e+00	1.323325e+02	2.143573e+01
0.0130254     	walls	1.385180e-01	4.652324e+01	1.489026e+01
0.0130254     	innerCylinder	0.000000e+00	0.000000e+00	0.000000e+00
0.0130254     	innerCylinder_slave	0.000000e+00	0.000000e+00	0.000000e+00
0.0130254     	propellerTip	3.351350e+00	1.311194e+02	2.127947e+01
0.0131677     	walls	1.338250e-01	4.665655e+01	1.495870e+01
0.0131677     	innerCylinder	0.000000e+00	0.000000e+00	0.000000e+00
0.0131677     	innerCylinder_slave	0.000000e+00	0.000000e+00	0.000000e+00
0.0131677     	propellerTip	3.344735e+00	1.299732e+02	2.111973e+01
0.0133099     	walls	2.638694e-01	4.678797e+01	1.502701e+01
0.0133099     	innerCylinder	0.000000e+00	0.000000e+00	0.000000e+00
0.0133099     	innerCylinder_slave	0.000000e+00	0.000000e+00	0.000000e+00
0.0133099     	propellerTip	3.337617e+00	1.289020e+02	2.095797e+01
0.013452      	walls	2.375670e-01	4.691745e+01	1.509505e+01
0.013452      	innerCylinder	0.000000e+00	0.000000e+00	0.000000e+00
0.013452      	innerCylinder_slave	0.000000e+00	0.000000e+00	0.000000e+00
0.013452      	propellerTip	3.329932e+00	1.279022e+02	2.079428e+01
0.013594      	walls	1.043317e-01	4.704543e+01	1.516291e+01
0.013594      	innerCylinder	0.000000e+00	0.000000e+00	0.000000e+00
0.013594      	innerCylinder_slave	0.000000e+00	0.000000e+00	0.000000e+00
0.013594      	propellerTip	3.319849e+00	1.269658e+02	2.063074e+01
0.0137359     	walls	1.708970e-01	4.717294e+01	1.523057e+01
0.0137359     	innerCylinder	0.000000e+00	0.000000e+00	0.000000e+00
0.0137359     	innerCylinder_slave	0.000000e+00	0.000000e+00	0.000000e+00
0.0137359     	propellerTip	3.300079e+00	1.260877e+02	2.046735e+01
0.0138777     	walls	8.425732e-02	4.729980e+01	1.529814e+01
0.0138777     	innerCylinder	0.000000e+00	0.000000e+00	0.000000e+00
0.0138777     	innerCylinder_slave	0.000000e+00	0.000000e+00	0.000000e+00
0.0138777     	propellerTip	3.283466e+00	1.252613e+02	2.030411e+01
0.0140194     	walls	2.080611e-01	4.742560e+01	1.536553e+01
0.0140194     	innerCylinder	0.000000e+00	0.000000e+00	0.000000e+00
0.0140194     	innerCylinder_slave	0.000000e+00	0.000000e+00	0.000000e+00
0.0140194     	propellerTip	3.269346e+00	1.244894e+02	2.014157e+01
0.0141611     	walls	1.016682e-01	4.755014e+01	1.543266e+01
0.0141611     	innerCylinder	0.000000e+00	0.000000e+00	0.000000e+00
0.0141611     	innerCylinder_slave	0.000000e+00	0.000000e+00	0.000000e+00
0.0141611     	propellerTip	3.257047e+00	1.237619e+02	1.998088e+01
0.0143028     	walls	6.065562e-02	4.767378e+01	1.549965e+01
0.0143028     	innerCylinder	0.000000e+00	0.000000e+00	0.000000e+00
0.0143028     	innerCylinder_slave	0.000000e+00	0.000000e+00	0.000000e+00
0.0143028     	propellerTip	3.246358e+00	1.230500e+02	1.982239e+01
0.0144444     	walls	1.169639e-01	4.779662e+01	1.556665e+01
0.0144444     	innerCylinder	0.000000e+00	0.000000e+00	0.000000e+00
0.0144444     	innerCylinder_slave	0.000000e+00	0.000000e+00	0.000000e+00
0.0144444     	propellerTip	3.237166e+00	1.223710e+02	1.966909e+01
0.0145861     	walls	3.062202e-01	4.792826e+01	1.563354e+01
0.0145861     	innerCylinder	0.000000e+00	0.000000e+00	0.000000e+00
0.0145861     	innerCylinder_slave	0.000000e+00	0.000000e+00	0.000000e+00
0.0145861     	propellerTip	3.229202e+00	1.217646e+02	1.951976e+01
0.0147279     	walls	3.071131e-01	4.809585e+01	1.570024e+01
0.0147279     	innerCylinder	0.000000e+00	0.000000e+00	0.000000e+00
0.0147279     	innerCylinder_slave	0.000000e+00	0.000000e+00	0.000000e+00
0.0147279     	propellerTip	3.222801e+00	1.211759e+02	1.937333e+01
0.0148697     	walls	2.565633e-01	4.826224e+01	1.576667e+01
0.0148697     	innerCylinder	0.000000e+00	0.000000e+00	0.000000e+00
0.0148697     	innerCylinder_slave	0.000000e+00	0.000000e+00	0.000000e+00
0.0148697     	propellerTip	3.218008e+00	1.205913e+02	1.923048e+01