# Probe 0 (0.128 0.01 0.01)
# Time        0            
0             (0 0 0)      
5.01485e-05   (-1.29751 0.025234 -0.328056)
9.88364e-05   (-1.95022 -0.0767045 -0.370687)
0.000153494   (-2.64275 -0.149152 -0.233513)
0.000211504   (-3.20884 -0.135019 0.0127798)
0.000271042   (-3.60048 -0.0597375 0.262034)
0.000332766   (-3.84855 0.0333255 0.470036)
0.000397369   (-4.00177 0.10896 0.623589)
0.000463068   (-4.07736 0.163125 0.732312)
0.000529999   (-4.10827 0.190181 0.795276)
0.000596842   (-4.0704 0.194504 0.861703)
0.000663131   (-3.96317 0.209607 0.867301)
0.000728718   (-3.88173 0.203903 0.822279)
0.000793726   (-3.79986 0.192777 0.78575)
0.000857862   (-3.71907 0.169083 0.74577)
0.00092071    (-3.66946 0.124022 0.703233)
0.000981436   (-3.55036 0.088388 0.70386)
0.0010404     (-3.45365 0.0564334 0.676641)
0.00109904    (-3.35942 0.0595629 0.670344)
0.00115762    (-3.27527 0.0680374 0.630662)
0.00121639    (-3.20228 0.0599491 0.574568)
0.00127541    (-3.13329 0.0345582 0.548495)
0.00133473    (-3.04536 0.0241927 0.551054)
0.00139471    (-2.95976 0.0356865 0.549634)
0.00145547    (-2.86682 0.0353158 0.499098)
0.00151651    (-2.78598 0.0225586 0.458619)
0.00157765    (-2.69865 0.016778 0.448197)
0.00163889    (-2.62008 0.033566 0.429517)
0.00170035    (-2.61084 0.0405547 0.389561)
0.00176225    (-2.58525 0.0469612 0.365081)
0.00182476    (-2.54857 0.0608326 0.336948)
0.00188788    (-2.50102 0.0863627 0.314764)
0.00195155    (-2.47683 0.121572 0.290053)
0.00201569    (-2.47335 0.121334 0.248138)
0.0020802     (-2.44733 0.134069 0.242685)
0.00214501    (-2.42974 0.167157 0.22397)
0.00220997    (-2.42411 0.213881 0.208519)
0.00227509    (-2.42666 0.268478 0.144332)
0.00234044    (-2.46798 0.2879 0.136573)
0.00240613    (-2.44625 0.316518 0.133439)
0.002472      (-2.43089 0.365169 0.108723)
0.00253777    (-2.44468 0.380978 0.0653685)
0.00260334    (-2.49147 0.369887 0.018768)
0.0026687     (-2.55629 0.334135 -0.00663632)
0.00273381    (-2.60229 0.309237 0.0326768)
0.00279846    (-2.63609 0.308887 0.0600531)
0.00286252    (-2.64577 0.284172 0.0806797)
0.0029261     (-2.66631 0.304527 0.0935985)
0.00298957    (-2.68787 0.321619 0.10535)
0.00305332    (-2.71582 0.339385 0.126823)
0.00311751    (-2.76584 0.348414 0.11632)
0.00318189    (-2.80007 0.341849 0.113089)
0.00324617    (-2.86952 0.285936 0.0890332)
0.00331011    (-2.88593 0.245489 0.153099)
0.00337338    (-2.8953 0.230623 0.176246)
0.00343539    (-2.90852 0.230067 0.181086)
0.00349601    (-2.93013 0.228969 0.200872)
0.00355595    (-2.93208 0.259941 0.232076)
0.0036154     (-2.96493 0.292337 0.249737)
0.00367442    (-2.96755 0.378926 0.284621)
0.00373323    (-2.98001 0.513851 0.285735)
0.00379208    (-2.99829 0.669121 0.236265)
0.00385142    (-3.06031 0.835794 0.161856)
0.00391156    (-3.15316 1.0158 0.0343526)
0.00397242    (-3.26554 1.17584 -0.146137)
0.00403432    (-3.43036 1.28461 -0.356106)
0.00409748    (-3.63121 1.35208 -0.557715)
0.00416201    (-3.84627 1.38009 -0.731347)
0.00422792    (-4.0374 1.38684 -0.882159)
0.00429516    (-4.23773 1.35784 -1.01564)
0.00436387    (-4.48087 1.30731 -1.10152)
0.00443393    (-4.82079 1.24695 -1.14588)
0.00450506    (-5.22137 1.16545 -1.1047)
0.00457681    (-5.59438 1.15799 -0.955125)
0.00464908    (-5.9358 1.21176 -0.787914)
0.00472133    (-6.23159 1.3044 -0.624422)
0.00479286    (-6.45448 1.41009 -0.447498)
0.00486402    (-6.62214 1.56257 -0.309283)
0.00493552    (-6.78801 1.69309 -0.214775)
0.00500704    (-6.89207 1.84911 -0.117406)
0.00507685    (-6.96507 1.96657 -0.112179)
0.0051469     (-6.98025 2.05633 -0.134946)
0.00521694    (-6.99829 2.1252 -0.15538)
0.00528693    (-6.99682 2.16589 -0.16978)
0.00535657    (-6.99934 2.17406 -0.208279)
0.00542677    (-6.97084 2.15475 -0.244442)
0.00549668    (-6.96901 2.13289 -0.282921)
0.00556566    (-6.98072 2.0854 -0.313522)
0.00563558    (-6.99826 2.04166 -0.312703)
0.00570647    (-7.01721 1.99227 -0.293579)
0.00577621    (-6.98867 1.99974 -0.311839)
0.00584738    (-6.98522 1.95904 -0.326372)
0.00591781    (-6.99066 1.95996 -0.261789)
0.00598841    (-6.98575 1.96652 -0.258355)
0.0060587     (-6.97742 1.9633 -0.26561)
0.00612932    (-7.00471 1.93711 -0.255369)
0.00620015    (-7.00129 1.95611 -0.220111)
0.00627105    (-6.9934 1.98364 -0.255407)
0.00634208    (-7.03454 1.96562 -0.299698)
0.00641281    (-7.07341 1.96479 -0.328891)
0.00648315    (-7.14012 1.94564 -0.352681)
0.00655325    (-7.21526 1.94968 -0.361951)
0.00662342    (-7.28553 1.98391 -0.397005)
0.00669382    (-7.36851 2.02723 -0.461212)
0.00676458    (-7.4624 2.07409 -0.535)
0.00683583    (-7.54352 2.13264 -0.615789)
0.00690753    (-7.61243 2.20011 -0.718985)
0.00697968    (-7.66399 2.26857 -0.846591)
0.00705205    (-7.70135 2.33602 -0.998769)
0.00712444    (-7.71474 2.4019 -1.17038)
0.00719731    (-7.7204 2.45758 -1.35253)
0.00726974    (-7.71235 2.50278 -1.52872)
0.00734267    (-7.69063 2.53907 -1.68844)
0.00741602    (-7.64833 2.56545 -1.82468)
0.00748932    (-7.60431 2.5789 -1.93506)
0.00756317    (-7.55968 2.57678 -2.01022)
0.00763717    (-7.51461 2.56181 -2.04895)
0.00770994    (-7.46307 2.53842 -2.05281)
0.00778247    (-7.40433 2.50815 -2.03389)
0.00785624    (-7.34789 2.4735 -2.0006)
0.0079299     (-7.30137 2.43682 -1.95802)
0.00800396    (-7.2661 2.39597 -1.90428)
0.00807835    (-7.22824 2.35058 -1.84483)
0.00815276    (-7.19648 2.29025 -1.78996)
0.00822691    (-7.18637 2.21005 -1.74278)
0.00830088    (-7.19986 2.10497 -1.69417)
0.00837444    (-7.2383 1.97966 -1.64016)
0.00844749    (-7.31116 1.84109 -1.57515)
0.00851999    (-7.41437 1.70367 -1.49422)
0.00859297    (-7.55772 1.58298 -1.39843)
0.0086664     (-7.73278 1.49609 -1.28965)
0.00874026    (-7.93092 1.46216 -1.18336)
0.00881431    (-8.13443 1.48642 -1.10061)
0.00888842    (-8.34059 1.56403 -1.05907)
0.00896266    (-8.52848 1.68805 -1.06222)
0.00903711    (-8.67696 1.84926 -1.11227)
0.00911137    (-8.77948 2.03008 -1.2053)
0.00918537    (-8.82945 2.20495 -1.32883)
0.00925929    (-8.83583 2.3571 -1.46871)
0.00933337    (-8.80093 2.46415 -1.60563)
0.00940688    (-8.74077 2.52597 -1.73147)
0.00948021    (-8.65869 2.53691 -1.83299)
0.00955332    (-8.56053 2.50377 -1.90703)
0.00962677    (-8.45537 2.43775 -1.95532)
0.00970037    (-8.34903 2.3508 -1.97855)
0.00977381    (-8.24992 2.25597 -1.98253)
0.00984747    (-8.1471 2.16741 -1.96874)
0.00992117    (-8.05895 2.09355 -1.95772)
0.00999466    (-7.98112 2.03887 -1.94539)
0.0100681     (-7.90747 2.0076 -1.94354)
0.0101411     (-7.83532 1.99739 -1.9599)
0.0102145     (-7.7613 2.00969 -1.99543)
0.0102878     (-7.6849 2.04261 -2.05291)
0.0103611     (-7.6007 2.08947 -2.12703)
0.0104344     (-7.50327 2.15153 -2.22168)
0.0105075     (-7.40143 2.22192 -2.33676)
0.0105813     (-7.30126 2.29646 -2.47033)
0.0106544     (-7.20374 2.36341 -2.60899)
0.0107279     (-7.10591 2.42805 -2.74493)
0.0108013     (-7.02239 2.4856 -2.88531)
0.0108746     (-6.93383 2.53346 -3.01249)
0.0109475     (-6.85123 2.56918 -3.13038)
0.0110209     (-6.77639 2.60008 -3.24159)
0.0110942     (-6.71722 2.62628 -3.34237)
0.0111673     (-6.66944 2.65198 -3.43025)
0.01124       (-6.62985 2.67006 -3.5044)
0.0113134     (-6.59557 2.68576 -3.56398)
0.0113865     (-6.57586 2.69674 -3.6137)
0.0114601     (-6.57243 2.70335 -3.65172)
0.0115332     (-6.58697 2.705 -3.67979)
0.0116074     (-6.61408 2.70142 -3.69727)
0.0116819     (-6.64922 2.69565 -3.71009)
0.0117561     (-6.69158 2.68829 -3.72332)
0.0118306     (-6.74374 2.67895 -3.73857)
0.011905      (-6.80324 2.6737 -3.7581)
0.0119801     (-6.86778 2.67523 -3.78051)
0.012055      (-6.93009 2.6853 -3.80566)
0.0121301     (-6.98528 2.70305 -3.83581)
0.0122056     (-7.02969 2.72407 -3.87353)
0.0122808     (-7.06131 2.74205 -3.91886)
0.0123561     (-7.08209 2.75495 -3.97443)
0.0124318     (-7.09773 2.75691 -4.03996)
0.0125079     (-7.11074 2.74582 -4.11591)
0.0125842     (-7.12533 2.72026 -4.20322)
0.0126608     (-7.14675 2.68157 -4.30265)
0.0127378     (-7.17728 2.63457 -4.41226)
0.0128151     (-7.21524 2.58842 -4.5292)
0.0128926     (-7.2559 2.55422 -4.65142)
0.0129702     (-7.29304 2.54234 -4.77663)
0.0130481     (-7.319 2.55946 -4.90153)
0.0131256     (-7.32612 2.60537 -5.02042)
0.0132032     (-7.30927 2.67569 -5.1287)
0.0132802     (-7.26748 2.76179 -5.21953)
0.0133567     (-7.2039 2.85174 -5.28651)
0.0134329     (-7.12511 2.93441 -5.32455)
0.0135088     (-7.0406 3.00054 -5.33147)
0.0135841     (-6.95751 3.04285 -5.30581)
0.0136592     (-6.87966 3.05889 -5.25138)
0.0137337     (-6.81083 3.04847 -5.17206)
0.013808      (-6.75193 3.01477 -5.07174)
0.0138823     (-6.70363 2.96228 -4.95558)
0.0139567     (-6.66623 2.89622 -4.82579)
0.0140309     (-6.64152 2.82412 -4.6843)
0.0141051     (-6.63136 2.75235 -4.53182)
0.0141794     (-6.63577 2.68672 -4.36982)
0.0142537     (-6.65289 2.63178 -4.20053)
0.0143281     (-6.67888 2.59015 -4.02654)
0.0144026     (-6.71221 2.56188 -3.85119)
0.0144772     (-6.75151 2.54586 -3.67612)
0.0145519     (-6.79938 2.53881 -3.50363)
0.0146267     (-6.85537 2.53726 -3.33249)
0.0147016     (-6.91766 2.53893 -3.16074)
0.0147767     (-6.98537 2.54203 -2.98893)
0.0148518     (-7.05781 2.54361 -2.81664)
0.0149265     (-7.13235 2.54396 -2.64606)
0.0150015     (-7.20938 2.54193 -2.47522)
0.0150765     (-7.28865 2.5374 -2.30535)
0.0151515     (-7.37011 2.53026 -2.13682)
0.0152263     (-7.45392 2.52107 -1.97038)
0.0153011     (-7.54026 2.50987 -1.8078)
0.0153758     (-7.62788 2.49664 -1.65104)
0.0154504     (-7.71501 2.48291 -1.5019)
0.0155249     (-7.80073 2.46903 -1.36157)
0.0155992     (-7.88311 2.45503 -1.23184)
0.0156735     (-7.95953 2.44111 -1.1147)
0.0157477     (-8.03325 2.42528 -1.01234)
0.0158218     (-8.10308 2.40897 -0.924954)
0.0158958     (-8.16825 2.39279 -0.855249)
0.0159697     (-8.22949 2.37608 -0.800745)
0.0160435     (-8.2858 2.3599 -0.761659)
0.0161173     (-8.33668 2.34588 -0.737627)
0.016191      (-8.38215 2.33296 -0.726253)
0.0162646     (-8.42107 2.32139 -0.725293)
0.0163382     (-8.45386 2.31041 -0.733195)
0.0164117     (-8.48413 2.29839 -0.748129)
0.0164854     (-8.51141 2.28486 -0.765358)
0.0165593     (-8.53401 2.26961 -0.783244)
0.0166327     (-8.55162 2.25276 -0.800984)
0.0167059     (-8.56433 2.23379 -0.818271)
0.0167793     (-8.57563 2.21341 -0.835527)
0.0168531     (-8.58443 2.19123 -0.8526)
0.016927      (-8.59195 2.16739 -0.86969)
0.017001      (-8.59953 2.14218 -0.886655)
0.0170751     (-8.60567 2.11674 -0.903259)
0.0171493     (-8.61065 2.09309 -0.921077)
0.0172236     (-8.61392 2.07065 -0.94021)
0.0172979     (-8.61497 2.04984 -0.960835)
0.0173723     (-8.61372 2.03113 -0.982207)
0.0174467     (-8.61008 2.01487 -1.00211)
0.0175212     (-8.60536 2.00024 -1.02049)
0.0175957     (-8.60013 1.98553 -1.03601)
0.0176702     (-8.59434 1.96957 -1.04697)
0.0177448     (-8.58745 1.95161 -1.05183)
0.0178194     (-8.57916 1.93099 -1.05005)
0.017894      (-8.56975 1.90749 -1.04219)
0.0179686     (-8.55944 1.88057 -1.0297)
0.0180431     (-8.54827 1.84977 -1.01407)
0.0181177     (-8.53541 1.81555 -0.996395)
0.0181922     (-8.52115 1.77797 -0.978407)
0.0182665     (-8.50636 1.73885 -0.964407)
0.0183409     (-8.4924 1.69876 -0.954134)
0.0184153     (-8.47785 1.65863 -0.947898)
0.0184896     (-8.46075 1.61864 -0.944819)
0.0185639     (-8.44291 1.58083 -0.94464)
0.0186381     (-8.423 1.54507 -0.946711)
0.0187114     (-8.40008 1.51177 -0.952782)
0.0187851     (-8.37924 1.4799 -0.960993)
0.018859      (-8.35779 1.45009 -0.966779)
0.0189329     (-8.33453 1.42302 -0.969792)
0.0190068     (-8.30937 1.39787 -0.970433)
0.0190805     (-8.28284 1.37374 -0.968544)
0.0191542     (-8.25529 1.34983 -0.964381)
0.0192278     (-8.22687 1.32583 -0.957402)
0.0193013     (-8.19742 1.30171 -0.947629)
0.0193748     (-8.16725 1.2774 -0.93574)
0.0194482     (-8.13619 1.25213 -0.921627)
0.0195214     (-8.10499 1.22568 -0.90554)
0.0195945     (-8.07422 1.19831 -0.887127)
0.0196677     (-8.04447 1.17033 -0.866198)
0.0197407     (-8.01624 1.14146 -0.842736)
0.0198138     (-7.98965 1.11221 -0.816473)
0.0198868     (-7.9648 1.08343 -0.787492)
0.0199597     (-7.94148 1.05469 -0.756523)
0.0200326     (-7.91965 1.02498 -0.723713)
0.0201054     (-7.89954 0.995044 -0.689503)
0.0201782     (-7.8808 0.965125 -0.654731)
0.020251      (-7.86237 0.935553 -0.619874)
0.0203237     (-7.84468 0.906898 -0.585486)
0.0203962     (-7.82714 0.87908 -0.551897)
0.0204688     (-7.81001 0.851887 -0.519529)
0.0205414     (-7.79475 0.826185 -0.487454)
0.0206139     (-7.77941 0.801031 -0.456519)
0.0206864     (-7.76631 0.775937 -0.428404)
0.0207588     (-7.75414 0.751272 -0.399651)
0.0208313     (-7.74144 0.728852 -0.372275)
0.0209037     (-7.72776 0.707339 -0.346761)
0.0209761     (-7.71317 0.686326 -0.321574)
0.0210484     (-7.69911 0.66572 -0.29805)
0.0211208     (-7.68509 0.645206 -0.276374)
0.021193      (-7.66925 0.625811 -0.256681)
0.0212653     (-7.65387 0.606138 -0.238788)
0.0213374     (-7.64014 0.587361 -0.223791)
0.0214096     (-7.62765 0.56925 -0.210709)
0.0214817     (-7.61472 0.552669 -0.199494)
0.0215538     (-7.60163 0.536182 -0.190167)
0.0216248     (-7.58915 0.521057 -0.183132)
0.021696      (-7.57662 0.506566 -0.177678)
0.0217677     (-7.56378 0.492479 -0.173655)
0.0218395     (-7.55054 0.479402 -0.170809)
0.0219107     (-7.53697 0.467592 -0.16936)
0.0219824     (-7.52254 0.457005 -0.169452)
0.0220538     (-7.50808 0.446934 -0.170745)
0.0221255     (-7.49366 0.437457 -0.173088)
0.0221973     (-7.47977 0.428745 -0.176547)
0.0222693     (-7.46641 0.420995 -0.181093)
0.0223414     (-7.45281 0.41426 -0.186911)
0.0224137     (-7.43859 0.408224 -0.194131)
0.022486      (-7.42442 0.402498 -0.202694)
0.0225584     (-7.41042 0.397213 -0.212265)
0.0226308     (-7.39653 0.392263 -0.2231)
0.0227032     (-7.3825 0.387207 -0.234964)
0.0227758     (-7.36835 0.382325 -0.247506)
0.0228484     (-7.3544 0.378002 -0.260824)
0.022921      (-7.34058 0.374372 -0.274743)
0.0229937     (-7.32634 0.371722 -0.289655)
0.0230665     (-7.31164 0.369707 -0.305687)
0.0231393     (-7.2967 0.368459 -0.322051)
0.0232122     (-7.28166 0.367668 -0.338293)
0.0232851     (-7.26786 0.367142 -0.354911)
0.0233581     (-7.25379 0.367431 -0.371273)
0.0234311     (-7.23872 0.368905 -0.387639)
0.023504      (-7.22293 0.370042 -0.404541)
0.0235765     (-7.20692 0.371457 -0.420962)
0.0236491     (-7.19048 0.37371 -0.437111)
0.0237219     (-7.17326 0.37614 -0.453239)
0.0237948     (-7.1562 0.379277 -0.469209)
0.0238678     (-7.13884 0.382758 -0.484775)
0.0239408     (-7.12113 0.386566 -0.500321)
0.0240139     (-7.10459 0.390008 -0.515475)
0.024087      (-7.08948 0.392815 -0.529409)
0.0241601     (-7.07893 0.394615 -0.545462)
0.0242332     (-7.07051 0.396999 -0.553176)
0.0243062     (-7.05244 0.399313 -0.558537)
0.0243793     (-7.03484 0.400106 -0.563312)
0.0244516     (-7.01759 0.403365 -0.565452)
0.0245241     (-6.99727 0.407969 -0.56746)
0.0245969     (-6.97804 0.413481 -0.571498)
0.0246695     (-6.96307 0.417529 -0.575814)
0.0247419     (-6.95082 0.420481 -0.578026)
0.0248144     (-6.94276 0.42174 -0.579245)
0.0248868     (-6.93839 0.420964 -0.576788)
0.0249593     (-6.93512 0.419157 -0.570681)
0.0250318     (-6.93247 0.416031 -0.562031)
0.0251043     (-6.92998 0.411785 -0.549216)
0.0251769     (-6.92661 0.40797 -0.532269)
0.0252494     (-6.92144 0.4052 -0.512455)
0.0253218     (-6.91465 0.403608 -0.490867)
0.0253933     (-6.90618 0.403086 -0.469524)
0.0254651     (-6.89735 0.402788 -0.448625)
0.0255373     (-6.88885 0.402652 -0.428134)
0.0256094     (-6.88166 0.402445 -0.408564)
0.0256815     (-6.8765 0.401455 -0.390595)
0.0257536     (-6.87498 0.399598 -0.373415)
0.0258258     (-6.87627 0.397172 -0.356198)
0.0258979     (-6.87958 0.394436 -0.339574)
0.0259701     (-6.88568 0.391252 -0.32318)
0.0260421     (-6.89325 0.388855 -0.305729)
0.0261141     (-6.90311 0.38644 -0.288696)
0.0261859     (-6.90967 0.384591 -0.269848)
0.0262577     (-6.91488 0.383213 -0.253215)
0.0263299     (-6.91902 0.381824 -0.238552)
0.0264018     (-6.92637 0.380659 -0.226184)
0.0264738     (-6.93562 0.379029 -0.213696)
0.0265454     (-6.94218 0.377755 -0.202258)
0.0266174     (-6.94733 0.376946 -0.192809)
0.0266892     (-6.9527 0.376787 -0.186328)
0.0267612     (-6.96221 0.374202 -0.182683)
0.0268327     (-6.9771 0.369262 -0.181222)
0.0269042     (-6.99458 0.360892 -0.177849)
0.026976      (-7.01067 0.35282 -0.16866)
0.0270472     (-7.01992 0.347483 -0.159598)
0.0271188     (-7.02521 0.344615 -0.148088)
0.0271905     (-7.0282 0.346431 -0.13897)
0.0272623     (-7.03003 0.348458 -0.134482)
0.0273342     (-7.03305 0.348678 -0.133286)
0.0274063     (-7.03494 0.347717 -0.132344)
0.0274779     (-7.03745 0.346165 -0.131698)
0.0275497     (-7.04023 0.345686 -0.131367)
0.0276215     (-7.04243 0.346356 -0.132265)
0.0276935     (-7.04467 0.347785 -0.134931)
0.0277655     (-7.04789 0.349401 -0.139211)
0.0278375     (-7.05209 0.350626 -0.144442)
0.0279097     (-7.05682 0.351599 -0.150055)
0.0279819     (-7.06112 0.352663 -0.155267)
0.0280542     (-7.0637 0.354746 -0.159757)
0.0281265     (-7.06374 0.358329 -0.164005)
0.0281988     (-7.06139 0.363214 -0.168982)
0.0282712     (-7.05762 0.369059 -0.175482)
0.0283436     (-7.05368 0.375275 -0.183877)
0.0284161     (-7.05024 0.381215 -0.194116)
0.0284886     (-7.04956 0.386089 -0.206798)
0.0285611     (-7.04715 0.391687 -0.217271)
0.0286337     (-7.04199 0.398046 -0.226981)
0.0287059     (-7.03329 0.407298 -0.23817)
0.0287778     (-7.01779 0.420481 -0.250582)
0.02885       (-6.99862 0.435629 -0.266688)
0.0289216     (-6.98651 0.448904 -0.292322)
0.0289932     (-6.98144 0.462403 -0.320792)
0.0290647     (-6.99709 0.470046 -0.360748)
0.0291356     (-7.02776 0.468826 -0.393319)
0.0292062     (-7.06975 0.460982 -0.425339)
0.0292767     (-7.112 0.45315 -0.432423)
0.0293474     (-7.13468 0.453769 -0.431041)
0.0294193     (-7.1371 0.459078 -0.429346)
0.0294905     (-7.13355 0.462555 -0.426667)
0.0295611     (-7.12702 0.469167 -0.42426)
0.0296316     (-7.1116 0.479861 -0.429502)
0.0297023     (-7.1004 0.483678 -0.440876)
0.0297729     (-7.0929 0.487542 -0.450683)
0.0298441     (-7.08725 0.493162 -0.458728)
0.029915      (-7.08009 0.49849 -0.465774)
0.0299858     (-7.07175 0.503134 -0.471151)
0.0300572     (-7.06274 0.506565 -0.474202)
0.0301281     (-7.0513 0.511772 -0.476486)
0.0301999     (-7.04142 0.517864 -0.476536)
0.0302705     (-7.02116 0.524676 -0.476789)
0.030341      (-7.00908 0.530697 -0.483696)
0.0304117     (-7.002 0.535415 -0.487665)
0.0304825     (-6.99912 0.538674 -0.48934)
0.0305533     (-6.99924 0.539395 -0.488131)
0.0306242     (-7.00115 0.540314 -0.482864)
0.0306957     (-6.9953 0.540351 -0.470781)
0.0307664     (-6.98868 0.544612 -0.460698)
0.0308374     (-6.98134 0.546753 -0.450648)
0.0309083     (-6.97484 0.550211 -0.439815)
0.0309792     (-6.96489 0.556632 -0.427612)
0.0310508     (-6.95008 0.561475 -0.41479)
0.0311214     (-6.93934 0.56811 -0.407882)
0.0311914     (-6.93104 0.572786 -0.401408)
0.0312618     (-6.93014 0.575837 -0.396656)
0.0313323     (-6.93514 0.575383 -0.391323)
0.0314034     (-6.93257 0.575034 -0.378829)
0.0314739     (-6.9284 0.576297 -0.371399)
0.0315455     (-6.93465 0.573852 -0.372907)
0.031616      (-6.94604 0.572942 -0.363406)
0.0316863     (-6.95058 0.576818 -0.353426)
0.0317567     (-6.96056 0.577997 -0.34751)
0.0318282     (-6.97683 0.574761 -0.341611)
0.0318979     (-6.98551 0.572943 -0.328722)
0.0319682     (-6.99795 0.570293 -0.322387)
0.032039      (-7.00798 0.571243 -0.309664)
0.0321088     (-7.016 0.570319 -0.299516)
0.032179      (-7.0222 0.568467 -0.287469)
0.0322493     (-7.02787 0.569141 -0.276019)
0.0323204     (-7.03306 0.569582 -0.265314)
0.0323913     (-7.03783 0.568871 -0.25601)
0.0324625     (-7.04201 0.56757 -0.245926)
0.0325333     (-7.04278 0.567377 -0.236123)
0.0326043     (-7.04333 0.567608 -0.227733)
0.0326746     (-7.04126 0.570282 -0.217925)
0.0327458     (-7.03292 0.575295 -0.208397)
0.0328176     (-7.02053 0.581647 -0.203341)
0.032889      (-7.01343 0.588275 -0.203503)
0.0329604     (-7.00631 0.596603 -0.202972)
0.0330322     (-6.99734 0.606244 -0.205027)
0.0331047     (-6.98675 0.615366 -0.207746)
0.0331769     (-6.97595 0.624246 -0.211528)
0.0332492     (-6.96498 0.632886 -0.216756)
0.0333221     (-6.95766 0.641414 -0.224077)
0.0333927     (-6.95015 0.650149 -0.230507)
0.0334643     (-6.94208 0.660328 -0.236104)
0.0335363     (-6.93591 0.671948 -0.244954)
0.0336087     (-6.93452 0.683606 -0.25619)
0.0336812     (-6.94141 0.693651 -0.269659)
0.0337523     (-6.93846 0.705777 -0.27712)
0.0338239     (-6.93645 0.719165 -0.290162)
0.0338958     (-6.94252 0.728881 -0.30746)
0.0339681     (-6.95623 0.733554 -0.322416)
0.0340406     (-6.97327 0.73696 -0.332363)
0.0341129     (-6.98742 0.741713 -0.337248)
0.0341851     (-6.99706 0.748392 -0.341528)
0.034256      (-7.00295 0.755228 -0.345672)
0.0343283     (-7.00504 0.762999 -0.348826)
0.0344001     (-7.0031 0.773077 -0.353632)
0.0344722     (-6.99958 0.783443 -0.360409)
0.0345444     (-6.99569 0.793844 -0.368603)
0.0346166     (-6.99124 0.80372 -0.377789)
0.0346879     (-6.9873 0.81343 -0.387112)
0.0347598     (-6.98277 0.823798 -0.39575)
0.0348321     (-6.97662 0.833002 -0.404349)
0.0349036     (-6.97006 0.843326 -0.412006)
0.0349755     (-6.95703 0.857602 -0.418526)
0.035047      (-6.94911 0.869642 -0.432547)
0.0351178     (-6.94353 0.879424 -0.446689)
0.0351899     (-6.94307 0.888947 -0.463463)
0.0352617     (-6.95434 0.894416 -0.485787)
0.0353329     (-6.96841 0.895964 -0.503646)
0.0354043     (-6.99147 0.893725 -0.520383)
0.0354747     (-7.01241 0.888975 -0.52237)
0.0355462     (-7.02194 0.889676 -0.516215)
0.0356175     (-7.02687 0.896191 -0.51317)
0.0356894     (-7.02781 0.898271 -0.509119)
0.0357608     (-7.02739 0.904913 -0.510081)
0.0358322     (-7.03268 0.908532 -0.511055)
0.0359035     (-7.04185 0.909531 -0.51364)
0.0359749     (-7.05552 0.905107 -0.5134)
0.0360465     (-7.0813 0.893066 -0.51131)
0.0361181     (-7.08905 0.892497 -0.49867)
0.0361898     (-7.09532 0.889995 -0.490074)
0.0362617     (-7.09785 0.883753 -0.473856)
0.0363339     (-7.09761 0.883017 -0.452547)
0.0364063     (-7.09151 0.884722 -0.433356)
0.0364789     (-7.07839 0.89117 -0.41301)
0.0365517     (-7.05496 0.899376 -0.397376)
0.0366245     (-7.02792 0.90607 -0.387449)
0.0366973     (-6.99934 0.908322 -0.381356)
0.03677       (-6.97631 0.909963 -0.377353)
0.0368428     (-6.95699 0.914334 -0.373956)
0.0369157     (-6.94088 0.919997 -0.372965)
0.0369886     (-6.92909 0.925137 -0.373844)
0.0370615     (-6.92305 0.928158 -0.375585)
0.0371343     (-6.92245 0.930259 -0.3759)
0.0372073     (-6.92519 0.933527 -0.375394)
0.0372801     (-6.93125 0.935368 -0.376087)
0.0373527     (-6.93896 0.934551 -0.374665)
0.0374252     (-6.94505 0.933863 -0.369809)
0.037498      (-6.95135 0.935073 -0.364029)
0.0375708     (-6.95065 0.937863 -0.355708)
0.0376429     (-6.94669 0.944043 -0.350232)
0.0377146     (-6.94461 0.951193 -0.351371)
0.0377863     (-6.94552 0.954239 -0.353998)
0.0378575     (-6.95368 0.957543 -0.359298)
0.037929      (-6.96633 0.959059 -0.365118)
0.0380008     (-6.98232 0.958656 -0.369455)
0.0380727     (-7.00251 0.956317 -0.372203)
0.0381443     (-7.02352 0.950731 -0.371101)
0.0382158     (-7.03709 0.947042 -0.366572)
0.038288      (-7.04977 0.945196 -0.365266)
0.0383589     (-7.05929 0.942979 -0.359178)
0.0384302     (-7.06412 0.945472 -0.352686)
0.0385012     (-7.06305 0.950619 -0.349638)
0.0385728     (-7.06142 0.956057 -0.350436)
0.0386433     (-7.05989 0.960871 -0.354018)
0.0387147     (-7.05981 0.964737 -0.360523)
0.0387866     (-7.06315 0.967187 -0.368906)
0.0388587     (-7.0663 0.967684 -0.375919)
0.0389308     (-7.07104 0.967282 -0.381921)
0.0390025     (-7.0729 0.968034 -0.384768)
0.0390744     (-7.06983 0.970046 -0.384077)
0.0391455     (-7.05998 0.977076 -0.384975)
0.0392175     (-7.04881 0.98676 -0.390008)
0.0392898     (-7.03881 0.998642 -0.398019)
0.0393616     (-7.0301 1.00754 -0.405964)
0.0394337     (-7.0204 1.0166 -0.417034)
0.0395059     (-7.01983 1.0234 -0.434872)
0.0395783     (-7.03041 1.02264 -0.454802)
0.0396509     (-7.05247 1.02228 -0.464756)
0.0397238     (-7.06582 1.02082 -0.472091)
0.0397964     (-7.07124 1.02398 -0.465634)
0.0398691     (-7.06031 1.03147 -0.464884)
0.0399416     (-7.0528 1.03606 -0.462599)
0.0400129     (-7.04249 1.04665 -0.460715)
0.0400849     (-7.03613 1.05829 -0.463874)
0.0401573     (-7.02888 1.07167 -0.46778)
0.04023       (-7.02553 1.07845 -0.478549)
0.0403024     (-7.02676 1.07337 -0.486133)
0.0403751     (-7.02695 1.07037 -0.482959)
0.0404478     (-7.02538 1.0737 -0.480487)
0.0405202     (-7.01557 1.07739 -0.475919)
0.0405928     (-7.00341 1.08125 -0.471705)
0.0406643     (-6.98742 1.08746 -0.468325)
0.0407366     (-6.96868 1.0957 -0.467319)
0.0408084     (-6.94916 1.10527 -0.47095)
0.0408789     (-6.94154 1.10858 -0.484485)
0.0409497     (-6.93796 1.1087 -0.487632)
0.0410204     (-6.9352 1.11186 -0.492063)
0.0410913     (-6.93087 1.11967 -0.495174)
0.0411623     (-6.92418 1.11825 -0.497939)
0.0412336     (-6.9249 1.10579 -0.505229)
0.041305      (-6.93738 1.10527 -0.498716)
0.0413767     (-6.94485 1.105 -0.487066)
0.041449      (-6.94194 1.10003 -0.474258)
0.0415209     (-6.93982 1.10016 -0.467413)
0.0415929     (-6.9315 1.10197 -0.458244)
0.0416652     (-6.91746 1.10522 -0.448208)
0.0417372     (-6.90101 1.10997 -0.441867)
0.0418096     (-6.88181 1.1167 -0.438048)
0.0418804     (-6.86936 1.12472 -0.442366)
0.0419519     (-6.8694 1.12904 -0.450303)
0.0420237     (-6.88157 1.12941 -0.460114)
0.0420954     (-6.8974 1.12142 -0.465087)
0.0421672     (-6.9172 1.11529 -0.465604)
0.042239      (-6.93558 1.10287 -0.461475)
0.0423108     (-6.94687 1.0948 -0.449451)
0.0423823     (-6.95918 1.09084 -0.439769)
0.0424539     (-6.96148 1.08668 -0.430327)
0.0425265     (-6.96197 1.0887 -0.416295)
0.0425977     (-6.96306 1.08928 -0.413191)
0.0426689     (-6.95989 1.08085 -0.404929)
0.0427397     (-6.96439 1.08855 -0.408818)
0.0428105     (-6.96422 1.09908 -0.414367)
0.0428813     (-6.9602 1.10158 -0.424382)
0.0429508     (-6.97656 1.09607 -0.442962)
0.0430208     (-7.00201 1.08044 -0.454823)
0.0430902     (-7.04514 1.07699 -0.450213)
0.0431598     (-7.07463 1.0705 -0.453452)
0.0432299     (-7.09607 1.06233 -0.447784)
0.0433002     (-7.12617 1.04825 -0.433185)
0.0433703     (-7.14319 1.0497 -0.412528)
0.0434403     (-7.13644 1.06349 -0.400745)
0.0435113     (-7.12501 1.06376 -0.398911)
0.043582      (-7.12903 1.05067 -0.392151)
0.0436529     (-7.1387 1.03999 -0.381996)
0.0437241     (-7.14435 1.03326 -0.370585)
0.0437958     (-7.14285 1.02986 -0.358393)
0.0438678     (-7.13501 1.02844 -0.345969)
0.0439382     (-7.12176 1.02885 -0.332113)
0.0440094     (-7.09693 1.03382 -0.317394)
0.0440806     (-7.06462 1.0433 -0.307354)
0.0441525     (-7.02888 1.0579 -0.305268)
0.0442241     (-6.99828 1.07371 -0.31549)
0.0442956     (-6.97841 1.08642 -0.331582)
0.0443679     (-6.969 1.09387 -0.348326)
0.0444386     (-6.96322 1.09868 -0.363569)
0.0445091     (-6.96038 1.10176 -0.37962)
0.0445801     (-6.96965 1.10549 -0.400274)
0.044651      (-6.97898 1.102 -0.412605)
0.0447225     (-6.99995 1.09698 -0.425895)
0.0447952     (-7.01545 1.09636 -0.426799)
0.0448669     (-7.03195 1.10073 -0.450313)
0.0449389     (-7.05888 1.09799 -0.459592)
0.04501       (-7.0791 1.09831 -0.463404)
0.0450825     (-7.09301 1.09995 -0.471566)
0.0451548     (-7.09822 1.09728 -0.459748)
0.0452259     (-7.09886 1.09993 -0.466318)
0.0452972     (-7.11053 1.10961 -0.465137)
0.0453688     (-7.09626 1.12252 -0.465712)
0.0454409     (-7.06591 1.12821 -0.46647)
0.0455138     (-7.05458 1.12655 -0.472183)
0.0455858     (-7.06501 1.12481 -0.476317)
0.0456581     (-7.07127 1.12686 -0.480637)
0.0457304     (-7.06997 1.13008 -0.476)
0.0458028     (-7.05896 1.13465 -0.471743)
0.0458752     (-7.04476 1.13234 -0.466646)
0.0459474     (-7.03202 1.13924 -0.459159)
0.046019      (-7.01617 1.14728 -0.455958)
0.0460912     (-6.99811 1.1526 -0.453562)
0.0461637     (-6.98571 1.15416 -0.454257)
0.0462361     (-6.96971 1.15666 -0.444844)
0.0463083     (-6.95061 1.16516 -0.446152)
0.0463807     (-6.9448 1.16724 -0.450887)
0.046453      (-6.94304 1.17009 -0.452991)
0.0465257     (-6.93921 1.17071 -0.455214)
0.0465979     (-6.93811 1.16838 -0.452086)
0.0466693     (-6.93554 1.17703 -0.442776)
0.046741      (-6.92848 1.18169 -0.442128)
0.046813      (-6.92623 1.18036 -0.444233)
0.0468844     (-6.92595 1.17947 -0.437965)
0.0469561     (-6.93218 1.17913 -0.431512)
0.0470281     (-6.93864 1.17647 -0.430706)
0.0471003     (-6.95365 1.17257 -0.426099)
0.0471724     (-6.96133 1.16733 -0.417829)
0.0472442     (-6.95741 1.17457 -0.404685)
0.0473165     (-6.95303 1.18319 -0.401032)
0.047389      (-6.95651 1.18219 -0.402668)
0.0474617     (-6.96294 1.18221 -0.398266)
0.0475342     (-6.96048 1.18072 -0.395014)
0.0476066     (-6.96082 1.17621 -0.393054)
0.0476788     (-6.96192 1.17044 -0.388518)
0.0477511     (-6.96154 1.16663 -0.382935)
0.0478238     (-6.96104 1.16533 -0.377664)
0.0478966     (-6.95815 1.16491 -0.373142)
0.0479693     (-6.95403 1.16497 -0.369856)
0.048042      (-6.94973 1.16537 -0.367068)
0.0481142     (-6.9445 1.16707 -0.364883)
0.0481857     (-6.93985 1.16886 -0.364352)
0.0482573     (-6.9372 1.17054 -0.364859)
0.0483285     (-6.9355 1.1722 -0.365643)
0.0484003     (-6.93445 1.17358 -0.366609)
0.0484716     (-6.93408 1.17495 -0.367366)
0.0485434     (-6.93426 1.17623 -0.367981)
0.0486151     (-6.93505 1.17606 -0.367746)
0.0486866     (-6.93729 1.17606 -0.367078)
0.0487584     (-6.93747 1.17623 -0.364932)
0.0488299     (-6.93664 1.17678 -0.362764)
0.0489024     (-6.93364 1.17844 -0.35798)
0.0489747     (-6.93196 1.18117 -0.357619)
0.0490472     (-6.93253 1.18136 -0.359037)
0.0491199     (-6.9349 1.17939 -0.358412)
0.0491928     (-6.93644 1.1773 -0.35437)
0.049266      (-6.93412 1.17726 -0.347677)
0.0493392     (-6.92747 1.17927 -0.342646)
0.0494123     (-6.92142 1.18101 -0.341037)
0.0494851     (-6.91867 1.18176 -0.341211)
0.0495567     (-6.91843 1.1817 -0.341474)
0.0496299     (-6.92006 1.18127 -0.340815)
0.0497025     (-6.9213 1.18114 -0.339694)