# Probe 0 (0.128 0.01 0.01)
# Time        0            
0             (0 0 0)      
6.8679e-05    (-0.813146 -0.00746065 -0.187943)
0.000174      (-0.838611 0.0519297 -0.252527)
0.000292153   (-1.14116 -0.151753 -0.576702)
0.000418463   (-1.15209 -0.072962 -0.544579)
0.000549389   (-1.14844 0.00505923 -0.493884)
0.000681015   (-1.12089 0.0877195 -0.432045)
0.000813182   (-1.30494 -0.0996652 -0.68699)
0.000946567   (-1.26132 0.0161269 -0.569604)
0.00108137    (-0.999676 0.144171 -0.689192)
0.00121687    (-0.751303 0.220263 -0.390787)
0.00135222    (-1.12416 -0.113927 -0.812416)
0.0014869     (-0.839086 0.152247 -0.566453)
0.00162079    (-1.06607 0.0691319 -0.531103)
0.00175417    (-1.30355 -0.356203 -0.945484)
0.00188724    (-1.03242 0.0291453 -0.677285)
0.00202015    (-1.24474 -0.0921682 -0.602676)
0.00215299    (-0.93333 0.0659995 -0.727254)
0.00228577    (-1.13573 -0.0683892 -0.679197)
0.00241847    (-0.851612 0.200204 -0.445768)
0.00255114    (-0.996474 0.0359397 -0.676567)
0.00268375    (-1.17779 -0.0780601 -0.604316)
0.00281632    (-0.849304 0.162489 -0.618914)
0.0029489     (-1.01928 0.0681711 -0.572387)
0.00308147    (-1.06011 -0.0641524 -0.77716)
0.00321393    (-0.843761 0.207606 -0.49495)
0.00334617    (-0.880983 0.138915 -0.642166)
0.00347818    (-1.041 0.040323 -0.595293)
0.00360994    (-1.02291 -0.0197044 -0.742473)
0.00374152    (-1.1828 -0.144798 -0.676351)
0.00387297    (-0.816587 0.210525 -0.547634)
0.00400435    (-0.959397 0.139722 -0.508014)
0.00413575    (-0.919789 0.117621 -0.594517)
0.0042672     (-1.06315 0.0344226 -0.542142)
0.00439873    (-0.989665 0.050099 -0.615945)
0.00453036    (-0.888828 0.111246 -0.652798)
0.00466214    (-1.03658 0.0118263 -0.61633)
0.0047941     (-0.918415 0.090662 -0.640246)
0.00492629    (-1.06288 -0.00576513 -0.597707)
0.00505873    (-0.929712 0.0929184 -0.605002)
0.00519143    (-1.06939 0.00546312 -0.558674)
0.00532436    (-0.923464 0.128878 -0.545566)
0.00545746    (-1.05689 0.054912 -0.49694)
0.00559068    (-0.902677 0.189518 -0.474108)
0.00572395    (-0.868243 0.0827849 -0.675089)
0.00585722    (-1.00782 -0.0219875 -0.642737)
0.00599047    (-0.838303 0.168178 -0.561937)
0.00612361    (-0.969268 0.0923029 -0.526432)
0.00625656    (-0.782091 0.272832 -0.447175)
0.0063893     (-0.980981 -0.0181475 -0.647885)
0.00652178    (-0.81104 0.200739 -0.535556)
0.00665396    (-0.932866 0.134187 -0.500149)
0.00678582    (-0.780587 0.184486 -0.599859)
0.00691735    (-0.902891 0.104877 -0.571152)
0.00704858    (-1.01885 0.0280667 -0.521819)
0.00717968    (-0.829719 0.142195 -0.607868)
0.00731068    (-0.946149 0.0584098 -0.568466)
0.00744158    (-0.757095 0.302809 -0.430338)
0.00757238    (-0.84851 0.163069 -0.569424)
0.00770304    (-0.959094 0.0895272 -0.523745)
0.00783353    (-0.734677 0.296684 -0.535974)
0.00796385    (-0.843671 0.234208 -0.503313)
0.00809398    (-0.857015 0.166731 -0.624963)
0.00822391    (-0.705535 0.401364 -0.442877)
0.00835372    (-0.833847 0.304039 -0.562669)
0.00848337    (-0.763601 0.422839 -0.522616)
0.00861314    (-0.81226 0.398045 -0.55012)
0.00874338    (-0.852633 0.385807 -0.56924)
0.00887443    (-0.775893 0.536083 -0.486351)
0.00900671    (-0.819285 0.558625 -0.478211)
0.00914061    (-0.8654 0.603797 -0.44596)
0.00927637    (-0.925202 0.670819 -0.374293)
0.00941413    (-0.953972 0.962455 -0.113532)
0.00955427    (-1.22288 0.943597 0.0710895)
0.00969676    (-1.63279 0.768988 0.199276)
0.00984125    (-2.03424 0.607732 0.144971)
0.00998739    (-2.24194 0.771736 -0.244093)
0.0101348     (-2.22435 0.882394 -0.305203)
0.0102828     (-2.95144 0.300682 -0.419648)
0.0104311     (-2.85559 0.511275 -0.423668)
0.010579      (-2.71799 0.713615 -0.414412)
0.010726      (-2.95134 0.44315 -0.545124)
0.0108722     (-2.76496 0.757592 -0.503045)
0.0110177     (-2.52665 1.01735 -0.460389)
0.0111625     (-2.91579 0.6378 -0.511745)
0.0113069     (-2.8128 0.0728705 -0.517002)
0.011451      (-2.85994 0.0172362 -0.435265)
0.0115948     (-2.4476 0.68347 -0.422396)
0.0117384     (-2.50168 0.634518 -0.34544)
0.0118819     (-2.58559 0.466599 -0.456115)
0.0120252     (-2.63424 0.420914 -0.374717)
0.0121685     (-2.60546 0.386224 -0.48239)
0.0123116     (-2.65025 0.344551 -0.396498)
0.0124547     (-2.5406 0.485631 -0.495257)
0.0125976     (-2.58416 0.447458 -0.410024)
0.0127403     (-2.62475 0.403942 -0.320408)
0.0128829     (-2.42332 0.647856 -0.414558)
0.0130254     (-2.4649 0.611361 -0.330565)
0.0131677     (-2.75751 0.142745 -0.400917)
0.0133099     (-2.47741 0.566845 -0.486655)
0.013452      (-2.51939 0.53077 -0.397749)
0.013594      (-2.71277 0.182791 -0.48079)
0.0137359     (-2.75183 0.140761 -0.377328)
0.0138777     (-2.30656 0.764595 -0.428711)
0.0140194     (-2.3458 0.730066 -0.346965)
0.0141611     (-2.49854 0.516351 -0.41122)
0.0143028     (-2.57464 0.363489 -0.479116)
0.0144444     (-2.61514 0.323541 -0.382792)
0.0145861     (-2.63969 0.268495 -0.456293)
0.0147279     (-2.67958 0.227733 -0.354624)
0.0148697     (-2.65417 0.244611 -0.4298)
0.0150115     (-2.58937 0.313041 -0.501848)
0.0151534     (-2.63109 0.273683 -0.400484)
0.0152953     (-2.50281 0.464688 -0.459649)
0.0154374     (-2.54087 0.427786 -0.361662)
0.0155795     (-2.34948 0.700047 -0.39371)
0.0157217     (-2.6391 0.0303079 -0.564562)
0.0158641     (-2.68623 -0.0152537 -0.458787)
0.0160065     (-2.44433 0.446378 -0.490438)
0.0161491     (-2.48729 0.408509 -0.394248)
0.0162917     (-2.12625 0.88843 -0.411681)
0.0164345     (-2.63025 -0.0771854 -0.450902)
0.0165773     (-2.32886 0.54352 -0.476542)
0.01672       (-2.37086 0.505165 -0.386276)
0.0168628     (-2.40403 0.302263 -0.525337)
0.0170054     (-2.44985 0.259272 -0.432491)
0.0171481     (-2.3953 0.231672 -0.571395)
0.0172906     (-2.43871 0.188583 -0.482696)
0.017433      (-1.96121 0.924847 -0.471179)
0.0175754     (-2.34654 0.332092 -0.521672)
0.0177178     (-2.38566 0.28962 -0.434116)
0.0178601     (-2.18512 0.617216 -0.558448)
0.0180025     (-2.22749 0.578147 -0.477275)
0.0181449     (-2.43111 0.102461 -0.499212)
0.0182874     (-1.95317 0.953843 -0.501155)
0.01843       (-2.36443 0.334746 -0.629441)
0.0185727     (-2.19866 0.690019 -0.652047)
0.0187154     (-2.31697 0.526704 -0.606312)
0.0188582     (-2.10887 0.924064 -0.641251)
0.0190012     (-2.22692 0.834613 -0.584553)
0.0191443     (-2.33998 0.774748 -0.501925)
0.0192876     (-2.54999 0.812431 -0.308618)
0.019431      (-2.37281 1.29722 -0.384588)
0.0195746     (-2.6801 1.22763 -0.194878)
0.0197185     (-3.14205 1.01633 -0.075533)
0.0198626     (-3.58763 0.851461 -0.155974)
0.0200068     (-3.82341 1.06611 -0.75306)
0.0201512     (-3.74356 1.26697 -0.881436)
0.0202958     (-4.87966 0.129773 -0.78745)
0.0204404     (-4.678 0.502818 -0.893684)
0.0205851     (-3.99324 1.31305 -1.32771)
0.0207297     (-4.80534 0.299121 -1.25792)
0.0208742     (-4.39307 0.8844 -1.38362)
0.0210185     (-3.89876 1.39436 -1.49722)
0.0211627     (-4.52829 0.645125 -1.50848)
0.0213066     (-4.62564 -0.443498 -1.21577)
0.0214504     (-4.65447 -0.449847 -0.978735)
0.021594      (-3.76331 0.846267 -1.38534)
0.0217374     (-3.82041 0.813022 -1.1614)
0.0218807     (-3.97932 0.31441 -1.43236)
0.0220238     (-4.0196 0.288876 -1.20514)
0.0221669     (-3.94763 0.115611 -1.53265)
0.0223099     (-3.98435 0.0920101 -1.30903)
0.0224529     (-3.72206 0.297696 -1.71691)
0.0225958     (-3.76963 0.270806 -1.50558)
0.0227386     (-3.80885 0.24595 -1.27101)
0.0228815     (-3.41196 0.699846 -1.69882)
0.0230243     (-3.47288 0.666547 -1.48321)
0.0231671     (-3.92845 -0.28858 -1.37938)
0.0233099     (-3.34439 0.543602 -1.86518)
0.0234527     (-3.41101 0.516707 -1.66613)
0.0235955     (-3.71748 -0.154167 -1.64938)
0.0237382     (-3.76448 -0.161363 -1.42214)
0.0238808     (-2.90302 0.970343 -1.91537)
0.0240234     (-2.98585 0.931282 -1.72836)
0.0241661     (-3.19444 0.557887 -1.8071)
0.0243087     (-3.28062 0.311191 -1.91255)
0.0244513     (-3.35512 0.287906 -1.71147)
0.024594      (-3.34896 0.199769 -1.87883)
0.0247366     (-3.42052 0.179065 -1.66495)
0.0248793     (-3.33252 0.214362 -1.84985)
0.0250219     (-3.14648 0.335952 -2.0293)
0.0251645     (-3.2313 0.306519 -1.83848)
0.0253071     (-2.91021 0.619383 -2.02504)
0.0254497     (-3.00269 0.580081 -1.83067)
0.0255923     (-2.60555 0.985086 -1.98675)
0.0257348     (-3.19736 -0.0949903 -1.99758)
0.0258773     (-3.28211 -0.116696 -1.82374)
0.0260197     (-2.75417 0.620757 -2.05113)
0.0261619     (-2.85515 0.576495 -1.87636)
0.0263041     (-3.09376 -0.122724 -1.94671)
0.0264463     (-3.17318 -0.14541 -1.77256)
0.0265884     (-2.57018 0.772519 -1.99668)
0.0267304     (-2.66865 0.722147 -1.83057)
0.0268724     (-2.71644 0.447046 -1.99313)
0.0270144     (-2.80541 0.407616 -1.82958)
0.0271563     (-2.6973 0.330285 -2.00569)
0.0272982     (-2.78844 0.294625 -1.85418)
0.0274401     (-2.08942 1.23103 -1.82443)
0.0275819     (-2.62059 0.484382 -1.92212)
0.0277238     (-2.71196 0.443171 -1.76063)
0.0278657     (-2.34954 0.840331 -1.92959)
0.0280076     (-2.44633 0.786291 -1.79215)
0.0281496     (-2.79802 0.122752 -1.76968)
0.0282916     (-2.09355 1.16068 -1.71421)
0.0284337     (-2.62023 0.466255 -1.97031)
0.0285757     (-2.35827 0.882089 -1.96329)
0.0287177     (-2.5182 0.680744 -1.93892)
0.0288597     (-2.22833 1.12865 -1.87901)
0.0290017     (-2.36797 1.01259 -1.84635)
0.0291436     (-2.49862 0.923912 -1.78153)
0.0292855     (-2.68301 0.922051 -1.62356)
0.0294274     (-2.43669 1.48256 -1.4654)
0.0295693     (-2.73165 1.4077 -1.26782)
0.029711      (-3.16899 1.19993 -1.1282)
0.0298527     (-3.57814 1.0355 -1.16704)
0.0299944     (-3.72795 1.25379 -1.58437)
0.0301359     (-3.651 1.42365 -1.62118)
0.0302773     (-4.67419 0.469285 -1.87691)
0.0304187     (-4.4572 0.819657 -1.84361)
0.0305599     (-4.18991 1.16106 -1.77949)
0.0307011     (-4.89661 0.172122 -1.96644)
0.0308422     (-4.1274 1.26686 -1.87642)
0.0309833     (-3.71966 1.66179 -1.70969)
0.0311245     (-4.25 1.16151 -1.88246)
0.0312657     (-3.07061 1.74946 -1.44331)
0.031407      (-4.48567 0.0796574 -1.92572)
0.0315484     (-3.61809 1.16524 -1.6703)
0.03169       (-3.67171 1.08534 -1.54644)
0.0318318     (-3.83739 0.729589 -1.76399)
0.0319737     (-3.88988 0.664444 -1.62635)
0.0321158     (-2.98869 1.46512 -1.27515)
0.0322581     (-3.8696 0.499345 -1.64023)
0.0324005     (-2.94267 1.40864 -1.23386)
0.0325431     (-3.66387 0.65832 -1.58328)
0.0326859     (-3.70544 0.591183 -1.45206)
0.0328287     (-3.336 0.951454 -1.44838)
0.0329717     (-3.3742 0.878679 -1.34258)
0.0331148     (-3.83585 0.147774 -1.56086)
0.0332579     (-2.92136 1.19379 -1.1449)
0.0334011     (-3.33728 0.760051 -1.3789)
0.0335443     (-3.36843 0.689948 -1.26798)
0.0336875     (-3.65674 0.219747 -1.43382)
0.0338307     (-2.94794 1.05404 -1.22478)
0.033974      (-2.97659 0.980778 -1.14495)
0.0341173     (-3.14647 0.763809 -1.27619)
0.0342606     (-3.17227 0.692274 -1.17941)
0.0344038     (-3.2525 0.555627 -1.27201)
0.0345472     (-3.26009 0.527291 -1.33665)
0.0346905     (-3.28597 0.462892 -1.23445)
0.034834      (-3.23069 0.515874 -1.27383)
0.0349774     (-3.25211 0.45028 -1.17224)
0.0351208     (-3.14078 0.572955 -1.18236)
0.0352642     (-2.94631 0.785196 -1.11718)
0.0354076     (-2.96434 0.715481 -1.03945)
0.0355511     (-2.72817 0.959993 -0.941273)
0.0356946     (-3.46685 -0.176942 -1.28173)
0.0358381     (-3.20666 0.278491 -1.21859)
0.0359817     (-2.86457 0.726171 -1.06237)
0.0361252     (-2.87794 0.661845 -0.985369)
0.0362687     (-2.49587 1.00916 -0.801765)
0.0364123     (-3.13549 0.205952 -1.14327)
0.0365558     (-2.72774 0.733025 -0.947217)
0.0366994     (-2.73575 0.668776 -0.875608)
0.0368429     (-2.83292 0.519721 -1.02986)
0.0369864     (-2.84306 0.46367 -0.94839)
0.0371299     (-2.81338 0.439411 -1.05461)
0.0372735     (-2.82566 0.38819 -0.971267)
0.037417      (-2.32812 0.848443 -0.702405)
0.0375606     (-2.71315 0.480768 -0.9304)
0.0377042     (-2.71828 0.425111 -0.851813)
0.0378479     (-2.53706 0.642855 -0.837511)
0.0379915     (-2.5414 0.587663 -0.769499)
0.0381352     (-2.79463 0.224022 -0.928894)
0.0382789     (-2.28947 0.756848 -0.63989)
0.0384225     (-2.64958 0.558845 -0.780281)
0.038566      (-2.60767 0.695733 -0.782052)
0.0387095     (-2.69646 0.600081 -0.794251)
0.0388529     (-2.51352 0.835699 -0.660023)
0.0389963     (-2.59412 0.795501 -0.642613)
0.0391397     (-2.67317 0.776372 -0.59758)
0.039283      (-2.89008 0.876708 -0.430353)
0.0394263     (-2.77361 1.12399 -0.227064)
0.0395695     (-3.04539 1.07096 -0.0325027)
0.0397127     (-3.44957 0.87205 0.106436)
0.0398559     (-3.83254 0.696823 0.0516021)
0.039999      (-4.02157 0.800661 -0.380551)
0.040142      (-3.91968 0.906191 -0.429817)
0.040285      (-4.76289 0.309073 -0.665801)
0.040428      (-4.53558 0.556425 -0.633663)
0.0405708     (-4.2672 0.777857 -0.581513)
0.0407137     (-4.54543 0.528854 -0.82211)
0.0408565     (-4.1847 0.822149 -0.697995)
0.0409993     (-3.80709 1.02259 -0.584438)
0.041142      (-4.22397 0.743188 -0.703737)
0.0412847     (-3.15299 0.919077 -0.480651)
0.0414273     (-4.2845 -0.000582934 -0.78498)
0.0415699     (-3.55626 0.58324 -0.612652)
0.0417125     (-3.54432 0.540165 -0.498405)
0.041855      (-3.69811 0.315495 -0.720083)
0.0419974     (-3.68939 0.279075 -0.59657)
0.0421398     (-3.64309 0.189769 -0.775242)
0.042282      (-3.63805 0.157938 -0.651089)
0.0424242     (-2.8937 0.619511 -0.446683)
0.0425664     (-3.44676 0.212474 -0.645033)
0.0427085     (-3.43594 0.175986 -0.531248)
0.0428506     (-3.15684 0.351597 -0.601013)
0.0429926     (-3.14949 0.317665 -0.497539)
0.0431347     (-3.50489 -0.0953712 -0.67009)
0.0432767     (-2.77429 0.470105 -0.428327)
0.0434189     (-3.0859 0.224342 -0.571693)
0.0435612     (-3.30024 -0.0558245 -0.715099)
0.0437037     (-3.29406 -0.0838952 -0.600985)
0.0438462     (-2.75335 0.34459 -0.539769)
0.0439888     (-2.75051 0.315619 -0.448853)
0.0441315     (-2.87163 0.183009 -0.54358)
0.0442742     (-2.86483 0.151283 -0.448696)
0.044417      (-2.91817 0.059891 -0.5255)
0.0445599     (-2.91843 0.0258442 -0.59175)
0.0447029     (-2.91201 -0.0023695 -0.493275)
0.0448459     (-2.86353 0.00911738 -0.547712)
0.044989      (-2.77106 0.0553252 -0.582439)
0.0451322     (-2.76727 0.0291355 -0.488737)
0.0452754     (-2.62085 0.117263 -0.496524)
0.0454187     (-2.616 0.0896136 -0.409345)
0.0455621     (-2.44311 0.199191 -0.404266)
0.0457056     (-2.75811 -0.136657 -0.622333)
0.0458492     (-2.75517 -0.158242 -0.5266)
0.0459929     (-2.50489 0.0516613 -0.487857)
0.0461367     (-2.50103 0.0266998 -0.403553)
0.0462806     (-2.23125 0.19983 -0.359759)
0.0464246     (-2.66147 -0.221057 -0.493686)
0.0465687     (-2.36803 0.0450559 -0.427658)
0.0467129     (-2.36393 0.0191032 -0.348407)
0.0468571     (-2.41941 -0.0752168 -0.480203)
0.0470013     (-2.41596 -0.0982814 -0.397313)
0.0471456     (-2.38851 -0.125339 -0.510547)
0.0472899     (-2.38708 -0.145555 -0.427279)
0.0474343     (-2.05455 0.116991 -0.324922)
0.0475786     (-2.29614 -0.0997082 -0.423612)
0.0477229     (-2.2923 -0.122759 -0.344772)
0.0478672     (-2.16298 -0.0020904 -0.395915)
0.0480115     (-2.16141 -0.0228624 -0.321674)
0.0481556     (-2.31738 -0.215684 -0.409352)
0.0482996     (-2.22046 -0.00183591 -0.401717)
0.0484435     (-2.29829 -0.0692942 -0.401948)
0.0485873     (-2.18292 0.069542 -0.348197)
0.0487311     (-2.23316 0.0360049 -0.33156)
0.0488747     (-2.10947 0.177159 -0.264311)
0.0490183     (-2.15778 0.181672 -0.224182)
0.0491618     (-2.2099 0.207219 -0.161034)
0.0493053     (-2.20445 0.414959 -0.0259477)
0.0494487     (-2.35682 0.468073 0.141484)
0.0495921     (-2.61939 0.436098 0.342642)
0.0497356     (-3.02429 0.254085 0.483223)
0.049879      (-3.62003 0.0728946 0.105517)
0.0500224     (-3.62875 0.146768 -0.0487079)
0.0501658     (-3.54169 0.242444 -0.119147)
0.0503093     (-4.3074 -0.251187 -0.284545)
0.0504528     (-4.09621 -0.0333275 -0.28042)
0.0505964     (-3.58636 0.331867 -0.366274)
0.05074       (-4.08144 -0.0665592 -0.495605)
0.0508837     (-3.75816 0.182937 -0.412711)
0.0510275     (-3.42507 0.35738 -0.337413)
0.0511713     (-3.77478 0.116711 -0.425716)
0.0513151     (-3.81044 -0.454875 -0.600593)
0.0514588     (-3.81764 -0.467007 -0.443482)
0.0516025     (-3.18881 0.0451673 -0.378003)
0.051746      (-3.84381 -0.842432 -0.538785)
0.0518894     (-3.29055 -0.17876 -0.462077)
0.0520326     (-3.29464 -0.190693 -0.330013)
0.0521756     (-3.22174 -0.278137 -0.516242)
0.0523184     (-3.2287 -0.288218 -0.386249)
0.052461      (-3.03902 -0.216804 -0.528546)
0.0526034     (-3.04824 -0.225008 -0.406269)
0.0527456     (-3.3492 -0.744519 -0.545252)
0.0528876     (-2.79696 -0.0853426 -0.403048)
0.0530295     (-3.06615 -0.456111 -0.530534)
0.0531713     (-3.07403 -0.46459 -0.40715)
0.053313      (-2.71173 -0.160516 -0.482236)
0.0534547     (-2.72089 -0.168103 -0.374236)
0.0535965     (-2.87704 -0.413959 -0.478934)
0.0537384     (-2.8835 -0.422824 -0.363929)
0.0538805     (-2.43265 -0.0527767 -0.391266)
0.0540226     (-2.44039 -0.0611029 -0.295375)
0.0541649     (-2.51861 -0.182691 -0.373306)
0.0543072     (-2.54111 -0.268512 -0.44514)
0.0544497     (-2.54935 -0.276152 -0.343733)
0.0545922     (-2.53235 -0.309305 -0.409953)
0.0547348     (-2.53883 -0.318217 -0.309225)
0.0548775     (-2.48548 -0.31262 -0.370606)
0.0550203     (-2.39884 -0.279549 -0.419832)
0.0551631     (-2.40698 -0.287355 -0.32421)
0.0553059     (-2.2821 -0.214874 -0.357851)
0.0554489     (-2.28895 -0.223679 -0.26756)
0.0555919     (-2.14598 -0.129759 -0.292752)
0.0557351     (-2.36549 -0.425691 -0.450816)
0.0558783     (-2.37454 -0.432126 -0.355735)
0.0560216     (-2.17188 -0.252378 -0.360871)
0.056165      (-2.17929 -0.260462 -0.274577)
0.0563085     (-2.28449 -0.459132 -0.420513)
0.0564521     (-2.29247 -0.466132 -0.328578)
0.0565957     (-2.05898 -0.234302 -0.315213)
0.0567393     (-2.06557 -0.243147 -0.233722)
0.0568829     (-2.08711 -0.331192 -0.35096)
0.0570266     (-2.09425 -0.338947 -0.267787)
0.0571702     (-2.05276 -0.365341 -0.37728)
0.0573138     (-2.06105 -0.371793 -0.294971)
0.0574575     (-1.97012 -0.317546 -0.383774)
0.0576011     (-1.9795 -0.32275 -0.304713)
0.0577447     (-1.98561 -0.33127 -0.226025)
0.0578882     (-1.86918 -0.224997 -0.298601)
0.0580317     (-1.98081 -0.385607 -0.356031)
0.0581751     (-1.98859 -0.391659 -0.276368)
0.0583184     (-1.89364 -0.214868 -0.302818)
0.0584616     (-1.95128 -0.265345 -0.290918)
0.0586048     (-1.8593 -0.140675 -0.26042)
0.0587479     (-1.89715 -0.157636 -0.234544)
0.058891      (-1.80205 -0.0281579 -0.190929)
0.059034      (-1.8401 -0.0100158 -0.14405)
0.059177      (-1.94944 0.0978024 -0.043954)
0.05932       (-1.89974 0.222736 0.0405309)
0.059463      (-2.04827 0.285757 0.21271)
0.059606      (-2.31152 0.261911 0.418816)
0.059749      (-2.72185 0.0880192 0.565463)
0.059892      (-3.33835 -0.101564 0.187697)
0.060035      (-3.36442 -0.0199199 0.026338)
0.060178      (-3.29519 0.0812256 -0.0526217)
0.0603211     (-4.05216 -0.424989 -0.189595)
0.0604642     (-3.6227 0.000278274 -0.345535)
0.0606074     (-3.37355 0.166923 -0.312013)
0.0607506     (-3.85692 -0.246929 -0.42409)
0.0608938     (-3.55405 0.0141207 -0.35834)
0.0610372     (-3.86868 -0.371244 -0.442367)
0.0611805     (-3.57891 -0.0533661 -0.376752)
0.0613239     (-3.60383 -0.613471 -0.519244)
0.0614673     (-3.61883 -0.618662 -0.362957)
0.0616107     (-3.0281 -0.0786142 -0.334469)
0.0617541     (-3.6222 -0.987196 -0.447004)
0.0618973     (-3.11885 -0.308869 -0.413292)
0.0620404     (-3.13052 -0.314877 -0.279487)
0.0621835     (-3.05077 -0.406966 -0.465274)
0.0623264     (-3.06482 -0.412165 -0.334277)
0.0624691     (-2.88146 -0.337698 -0.487141)
0.0626118     (-2.89704 -0.341885 -0.363919)
0.0627542     (-3.16186 -0.872114 -0.47365)
0.0628966     (-2.66306 -0.188514 -0.370892)
0.0630388     (-2.90477 -0.573191 -0.47643)
0.063181      (-2.91892 -0.577761 -0.352181)
0.063323      (-2.57956 -0.257328 -0.448972)
0.0634649     (-2.59354 -0.261413 -0.339557)
0.0636069     (-2.73353 -0.516269 -0.431626)
0.0637488     (-2.74578 -0.521266 -0.315106)
0.0638908     (-2.32119 -0.128049 -0.368525)
0.0640329     (-2.33257 -0.133086 -0.270564)
0.0641751     (-2.40425 -0.258858 -0.343672)
0.0643173     (-2.42298 -0.34497 -0.413873)
0.0644596     (-2.43538 -0.349663 -0.310693)
0.0646021     (-2.41747 -0.38018 -0.378602)
0.0647446     (-2.42826 -0.385557 -0.275639)
0.0648872     (-2.37597 -0.375473 -0.340367)
0.0650299     (-2.29168 -0.335427 -0.394195)
0.0651726     (-2.30364 -0.34064 -0.296669)
0.0653153     (-2.18158 -0.259433 -0.336896)
0.0654582     (-2.19167 -0.265192 -0.244324)
0.0656011     (-2.0512 -0.162673 -0.276703)
0.065744      (-2.25943 -0.47657 -0.42266)
0.0658871     (-2.27241 -0.480609 -0.325945)
0.0660302     (-2.07426 -0.285021 -0.342016)
0.0661733     (-2.0847 -0.290277 -0.253911)
0.0663165     (-2.18104 -0.498564 -0.39262)
0.0664598     (-2.19273 -0.502952 -0.299187)
0.0666031     (-1.96296 -0.255051 -0.298192)
0.0667464     (-2.21818 -0.656369 -0.344617)
0.0668897     (-1.98853 -0.351266 -0.331205)
0.0670329     (-1.99849 -0.356417 -0.2466)
0.0671761     (-1.95384 -0.380169 -0.357604)
0.0673194     (-1.96479 -0.384589 -0.274199)
0.0674626     (-1.87106 -0.324782 -0.36729)
0.0676057     (-1.88266 -0.328521 -0.287485)
0.0677489     (-2.01727 -0.564129 -0.342868)
0.067892      (-1.77105 -0.223649 -0.285647)
0.068035      (-1.88372 -0.385736 -0.335422)
0.068178      (-1.89396 -0.389899 -0.254912)
0.0683209     (-1.79065 -0.206933 -0.290359)
0.0684637     (-1.85005 -0.25634 -0.275975)
0.0686064     (-1.7567 -0.128493 -0.250441)
0.068749      (-1.79731 -0.143454 -0.222339)
0.0688916     (-1.7005 -0.0105957 -0.18371)
0.0690342     (-1.7409 0.0102786 -0.135173)
0.0691767     (-1.85349 0.121339 -0.0318735)
0.0693192     (-1.80099 0.250032 0.0474195)
0.0694617     (-1.95239 0.315498 0.221159)
0.0696042     (-2.21943 0.293442 0.429318)
0.0697468     (-2.63575 0.119754 0.577538)
0.0698893     (-3.26155 -0.0680852 0.197425)
0.0700318     (-3.29259 0.0158358 0.0336118)
0.0701744     (-3.22686 0.119411 -0.0476468)
0.0703169     (-4.00375 -0.409056 -0.178729)
0.0704596     (-3.81268 -0.183291 -0.192362)
0.0706022     (-3.3258 0.201717 -0.313937)
0.0707449     (-3.82076 -0.235082 -0.4241)
0.0708876     (-3.51819 0.0394494 -0.362205)
0.0710304     (-3.83738 -0.367769 -0.44384)
0.0711733     (-3.54998 -0.0336518 -0.383367)
0.0713162     (-3.57048 -0.613161 -0.520617)
0.0714591     (-3.58787 -0.617559 -0.362649)
0.0716021     (-2.99059 -0.0529834 -0.340877)
0.071745      (-3.58559 -0.998504 -0.445871)
0.071888      (-3.08457 -0.294439 -0.420458)
0.0720309     (-3.09833 -0.299735 -0.284517)
0.0721737     (-3.01525 -0.392353 -0.472797)
0.0723165     (-3.03126 -0.397179 -0.339865)
0.0724593     (-2.8439 -0.317308 -0.495904)
0.0726019     (-2.86118 -0.321555 -0.370756)
0.0727445     (-2.87295 -0.327109 -0.244831)
0.072887      (-2.62584 -0.162294 -0.378573)
0.0730294     (-2.87438 -0.563642 -0.482718)
0.0731718     (-2.89041 -0.568031 -0.356051)
0.073314      (-2.54683 -0.234197 -0.458075)
0.0734561     (-2.56256 -0.23834 -0.346444)
0.0735982     (-2.70797 -0.502797 -0.438907)
0.0737403     (-2.72209 -0.507368 -0.319924)
0.0738824     (-2.28806 -0.0947276 -0.377322)
0.0740245     (-2.30085 -0.099557 -0.277487)
0.0741667     (-2.37803 -0.229826 -0.351747)
0.0743089     (-2.39992 -0.318612 -0.423502)
0.0744513     (-2.41401 -0.323091 -0.318089)
0.0745937     (-2.39798 -0.35397 -0.387907)
0.0747361     (-2.41045 -0.358959 -0.282494)
0.0748786     (-2.3591 -0.347612 -0.349373)
0.0750211     (-2.27445 -0.303777 -0.40496)
0.0751637     (-2.28799 -0.308335 -0.305082)
0.0753063     (-2.16275 -0.221044 -0.346739)
0.075449      (-2.17424 -0.225936 -0.251948)
0.0755917     (-2.02861 -0.116808 -0.285589)
0.0757345     (-2.25136 -0.449919 -0.434672)
0.0758774     (-2.26615 -0.453657 -0.335346)
0.0760203     (-2.05997 -0.24434 -0.352929)
0.0761633     (-2.07179 -0.248782 -0.262436)
0.0763063     (-2.1758 -0.471584 -0.404955)
0.0764493     (-2.18937 -0.475448 -0.308765)
0.0765924     (-1.94802 -0.210747 -0.308651)
0.0767355     (-1.95832 -0.215714 -0.22311)
0.0768785     (-1.97915 -0.311411 -0.342585)
0.0770215     (-1.99061 -0.315779 -0.255443)
0.0771645     (-1.94485 -0.340196 -0.369831)
0.0773075     (-1.95742 -0.344108 -0.284056)
0.0774505     (-1.85874 -0.280041 -0.379966)
0.0775934     (-1.87187 -0.283578 -0.298092)
0.0777363     (-1.88153 -0.288279 -0.215767)
0.0778792     (-1.75462 -0.174101 -0.295922)
0.078022      (-1.76447 -0.178544 -0.218951)
0.0781647     (-1.89137 -0.351314 -0.264769)
0.0783074     (-1.77776 -0.154195 -0.301666)
0.07845       (-1.84383 -0.208474 -0.28789)
0.0785925     (-1.7433 -0.0722602 -0.261534)
0.0787349     (-1.78961 -0.0908271 -0.233562)
0.0788772     (-1.68403 0.0521237 -0.193996)
0.0790195     (-1.72932 0.0709401 -0.145457)
0.0791618     (-1.78065 0.110834 -0.073973)
0.0793041     (-1.95655 0.27426 0.130813)
0.0794464     (-1.94101 0.381976 0.211174)
0.0795888     (-2.21183 0.358903 0.419554)
0.0797311     (-2.63235 0.183446 0.566897)
0.0798734     (-3.25891 -0.00463756 0.18046)
0.0800157     (-3.28907 0.0824565 0.0158695)
0.080158      (-3.22145 0.18988 -0.0646406)
0.0803004     (-4.0161 -0.358877 -0.198298)
0.0804427     (-3.82461 -0.127478 -0.2124)
0.0805851     (-3.3302 0.270237 -0.334666)
0.0807275     (-3.83752 -0.18832 -0.448702)
0.08087       (-3.53138 0.0985811 -0.385265)
0.0810125     (-3.20372 0.31297 -0.324771)
0.0811551     (-3.56914 0.020875 -0.408142)
0.0812977     (-2.6556 0.302855 -0.283659)
0.0814404     (-3.60875 -0.583829 -0.386337)
0.0815832     (-2.99537 0.00344211 -0.362399)
0.0817259     (-3.00706 -0.000828923 -0.228953)
0.0818687     (-3.09292 -0.246386 -0.443278)
0.0820115     (-3.10787 -0.250751 -0.305329)
0.0821542     (-3.02632 -0.349407 -0.496323)
0.082297      (-3.04352 -0.353662 -0.361311)
0.0824398     (-2.44052 0.155099 -0.289547)
0.0825825     (-2.87288 -0.276276 -0.392795)
0.0827252     (-2.88581 -0.281022 -0.264553)
0.0828678     (-2.63053 -0.109624 -0.398859)
0.0830104     (-2.64392 -0.113955 -0.2816)
0.0831529     (-2.90835 -0.530412 -0.37807)
0.0832953     (-2.55265 -0.18441 -0.478746)
0.0834377     (-2.56946 -0.188203 -0.365056)
0.0835799     (-2.72392 -0.462673 -0.460274)
0.0837221     (-2.73943 -0.466818 -0.338754)
0.0838643     (-2.28788 -0.0384653 -0.394006)
0.0840065     (-2.30143 -0.0424648 -0.292498)
0.0841487     (-2.38584 -0.178882 -0.369329)
0.0842909     (-2.4122 -0.272649 -0.443287)
0.0844332     (-2.42736 -0.276477 -0.335826)
0.0845755     (-2.41371 -0.309311 -0.407939)
0.0847178     (-2.42724 -0.313474 -0.300355)
0.0848601     (-2.37629 -0.301907 -0.369161)
0.0850025     (-2.29009 -0.256241 -0.425775)
0.0851449     (-2.30467 -0.25981 -0.323826)
0.0852874     (-2.17471 -0.167829 -0.365451)
0.0854299     (-2.18706 -0.171529 -0.268679)
0.0855724     (-2.03446 -0.0563946 -0.301957)
0.085715      (-2.27468 -0.410402 -0.457847)
0.0858577     (-2.29071 -0.413453 -0.356121)
0.0860005     (-2.07404 -0.19124 -0.372618)
0.0861433     (-2.08675 -0.194682 -0.280052)
0.0862861     (-1.85047 -0.00374239 -0.284856)
0.086429      (-2.21558 -0.434449 -0.329059)
0.0865719     (-1.95892 -0.153824 -0.326586)
0.0867148     (-1.96993 -0.15771 -0.239124)
0.0868577     (-1.9964 -0.259805 -0.362343)
0.0870006     (-2.00879 -0.263332 -0.273059)
0.0871435     (-1.96462 -0.291983 -0.390723)
0.0872863     (-1.9782 -0.295203 -0.302796)
0.0874292     (-1.68448 -0.0124909 -0.261462)
0.087572      (-1.89047 -0.232215 -0.316975)
0.0877147     (-1.90104 -0.235978 -0.232376)
0.0878575     (-1.76596 -0.116463 -0.313358)
0.0880002     (-1.7765 -0.120115 -0.234517)
0.0881428     (-1.91738 -0.30679 -0.283506)
0.0882853     (-1.61686 0.0156854 -0.219245)
0.0884277     (-1.86754 -0.156954 -0.308657)
0.0885701     (-1.7587 -0.0124574 -0.279443)
0.0887124     (-1.81092 -0.0345417 -0.252016)
0.0888547     (-1.69535 0.116663 -0.210528)
0.0889969     (-1.74576 0.132854 -0.162595)
0.0891392     (-1.80169 0.170139 -0.0915615)
0.0892813     (-1.98481 0.328704 0.109746)
0.0894235     (-1.95665 0.448428 0.192157)
0.0895657     (-2.23094 0.424778 0.398892)
0.0897079     (-2.65553 0.248523 0.542851)
0.0898501     (-3.0636 0.0774465 0.489585)
0.0899922     (-3.30795 0.150095 -0.0142511)
0.0901344     (-3.23764 0.259974 -0.0939402)
0.0902766     (-4.05009 -0.304154 -0.235268)
0.0904188     (-3.85524 -0.0679902 -0.247739)
0.090561      (-3.62197 0.148969 -0.240194)
0.0907033     (-3.86922 -0.131737 -0.487994)
0.0908457     (-3.55732 0.163684 -0.420813)
0.0909881     (-3.22209 0.386061 -0.356281)
0.0911306     (-3.59866 0.0839626 -0.444477)
0.0912731     (-2.65977 0.37541 -0.308435)
0.0914157     (-3.6446 -0.541033 -0.423211)
0.0915583     (-3.01343 0.0615566 -0.393361)
0.091701      (-3.02666 0.0581564 -0.257934)
0.0918437     (-3.11789 -0.195047 -0.476643)
0.0919864     (-3.13446 -0.19884 -0.336518)
0.0921291     (-3.05089 -0.297912 -0.530274)
0.0922719     (-3.06968 -0.301722 -0.393127)
0.0924146     (-2.44019 0.221635 -0.312143)
0.0925574     (-2.89288 -0.220812 -0.422239)
0.0927001     (-2.90716 -0.224725 -0.292082)
0.0928428     (-2.64287 -0.0513196 -0.425282)
0.0929854     (-2.65737 -0.0547327 -0.306314)
0.093128      (-2.93607 -0.483376 -0.408291)
0.0932705     (-2.33638 0.131768 -0.295719)
0.0934129     (-2.58514 -0.133333 -0.391417)
0.0935552     (-2.74925 -0.415655 -0.490997)
0.0936975     (-2.76628 -0.419239 -0.367402)
0.0938397     (-2.29552 0.0191507 -0.418853)
0.0939819     (-2.3102 0.0158514 -0.315949)
0.0941241     (-2.40111 -0.123787 -0.394876)
0.0942663     (-2.41451 -0.127339 -0.287165)
0.0944085     (-2.44763 -0.223111 -0.361847)
0.0945507     (-2.4353 -0.257161 -0.435507)
0.0946929     (-2.45021 -0.260653 -0.326105)
0.0948351     (-2.3984 -0.249752 -0.395672)
0.0949774     (-2.41158 -0.25328 -0.287929)
0.0951197     (-2.3253 -0.206711 -0.348663)
