# Residuals   
# Time        	p             	Ux            	Uy            	Uz            	k             
0             	N/A           	N/A           	N/A           	N/A           	N/A           
1.91583e-05   	2.953949e-01	8.783151e-03	6.423763e-04	6.876283e-03	1.043895e-04
2.43077e-05   	1.308950e-01	6.287830e-03	4.506154e-04	5.142342e-03	2.346765e-04
3.87453e-05   	4.516175e-01	7.119705e-03	3.561619e-04	5.127502e-03	1.560325e-04
6.0478e-05    	2.586813e-01	4.437874e-03	3.552888e-04	6.174851e-03	2.475142e-04
0.000103556   	3.469729e-01	4.996881e-03	5.077454e-04	7.628972e-03	3.209396e-04
0.000161941   	1.030471e-01	5.801642e-03	5.163299e-04	6.574170e-03	3.555172e-04
0.000227486   	3.797297e-02	6.472782e-03	5.162365e-04	5.689660e-03	3.131311e-04
0.000288771   	2.803992e-02	5.215353e-03	5.330326e-04	5.409882e-03	2.992964e-04
0.000348678   	2.350135e-02	4.558128e-03	5.332118e-04	5.118301e-03	2.923964e-04
0.000404674   	1.949419e-02	4.134183e-03	5.140815e-04	4.600769e-03	2.824707e-04
0.000459211   	1.790256e-02	4.020810e-03	5.177664e-04	4.216414e-03	2.894423e-04
0.000513998   	1.702215e-02	3.828443e-03	5.110356e-04	3.857297e-03	2.911428e-04
0.000567348   	1.708040e-02	3.705748e-03	5.121610e-04	3.648894e-03	2.969532e-04
0.000621568   	1.593044e-02	3.705836e-03	5.307312e-04	3.591039e-03	3.108109e-04
0.000677221   	1.615721e-02	3.693320e-03	5.521914e-04	3.506984e-03	3.247824e-04
0.000734051   	1.636233e-02	3.628699e-03	5.702823e-04	3.361837e-03	3.336503e-04
0.000791398   	1.615831e-02	3.528066e-03	5.847349e-04	3.223247e-03	3.376071e-04
0.000848883   	1.622093e-02	3.422329e-03	5.960568e-04	3.084894e-03	3.372809e-04
0.000906177   	1.596218e-02	3.304223e-03	6.058485e-04	2.948527e-03	3.322585e-04
0.000963153   	1.578918e-02	3.195127e-03	6.143634e-04	2.829222e-03	3.243175e-04
0.00101978    	1.560834e-02	3.092113e-03	6.211995e-04	2.722306e-03	3.139248e-04
0.00107607    	1.496366e-02	2.991060e-03	6.280317e-04	2.612808e-03	3.013150e-04
0.00113203    	1.481238e-02	2.889527e-03	6.337985e-04	2.505746e-03	2.873748e-04
0.0011877     	1.439630e-02	2.774922e-03	6.375861e-04	2.406508e-03	2.723272e-04
0.00124299    	1.386427e-02	2.662586e-03	6.393900e-04	2.307436e-03	2.558914e-04
0.00129784    	1.357707e-02	2.563390e-03	6.389115e-04	2.216916e-03	2.392421e-04
0.00135229    	1.356325e-02	2.476435e-03	6.376117e-04	2.138459e-03	2.230336e-04
0.00140643    	1.334392e-02	2.399659e-03	6.345288e-04	2.069898e-03	2.077201e-04
0.00146037    	1.280917e-02	2.337375e-03	6.310945e-04	2.013031e-03	1.935607e-04
0.00151421    	1.205462e-02	2.286143e-03	6.277590e-04	1.965132e-03	1.810248e-04
0.00156807    	1.229145e-02	2.240784e-03	6.233552e-04	1.918775e-03	1.701436e-04
0.00162205    	1.243468e-02	2.207104e-03	6.190543e-04	1.886385e-03	1.608242e-04
0.00167622    	1.202700e-02	2.178400e-03	6.162463e-04	1.860199e-03	1.530807e-04
0.0017307     	1.176993e-02	2.154829e-03	6.125742e-04	1.837914e-03	1.466243e-04
0.00178548    	1.190976e-02	2.133402e-03	6.092715e-04	1.818901e-03	1.411650e-04
0.00184054    	1.217744e-02	2.110205e-03	6.056071e-04	1.803948e-03	1.365219e-04
0.00189584    	1.168926e-02	2.089051e-03	6.020775e-04	1.788972e-03	1.326492e-04
0.0019514     	1.153581e-02	2.066646e-03	5.976881e-04	1.777785e-03	1.295273e-04
0.00200721    	1.152677e-02	2.046816e-03	5.943525e-04	1.771728e-03	1.270241e-04
0.00206331    	1.177448e-02	2.030746e-03	5.909656e-04	1.765676e-03	1.249204e-04
0.00211969    	1.005733e-02	2.009260e-03	5.886809e-04	1.761912e-03	1.230708e-04
0.00217632    	1.039236e-02	1.991226e-03	5.828824e-04	1.756253e-03	1.211604e-04
0.00223313    	1.173374e-02	1.970153e-03	5.800071e-04	1.750239e-03	1.191704e-04
0.00229009    	1.131977e-02	1.949743e-03	5.758554e-04	1.743696e-03	1.171964e-04
0.00234711    	1.122638e-02	1.923933e-03	5.715135e-04	1.734267e-03	1.147665e-04
0.0024041     	1.170847e-02	1.897504e-03	5.670597e-04	1.725015e-03	1.122790e-04
0.0024611     	1.144444e-02	1.874030e-03	5.635850e-04	1.718194e-03	1.097779e-04
0.00251814    	1.132164e-02	1.847079e-03	5.609313e-04	1.712324e-03	1.072815e-04
0.00257518    	1.166772e-02	1.822376e-03	5.580568e-04	1.706916e-03	1.045498e-04
0.00263222    	1.138028e-02	1.795436e-03	5.557645e-04	1.700958e-03	1.018075e-04
0.00268925    	1.124172e-02	1.769177e-03	5.536491e-04	1.695066e-03	9.908342e-05
0.00274625    	1.177451e-02	1.742991e-03	5.511872e-04	1.689448e-03	9.629802e-05
0.00280321    	1.168518e-02	1.716974e-03	5.487739e-04	1.682670e-03	9.361557e-05
0.00286008    	1.161634e-02	1.689360e-03	5.456187e-04	1.674719e-03	9.108774e-05
0.00291685    	1.170388e-02	1.662212e-03	5.424436e-04	1.667034e-03	8.856984e-05
0.00297349    	1.215268e-02	1.634428e-03	5.384813e-04	1.656882e-03	8.594500e-05
0.00302997    	1.137988e-02	1.606353e-03	5.345726e-04	1.645208e-03	8.314247e-05
0.00308629    	1.184355e-02	1.578191e-03	5.308168e-04	1.633399e-03	8.032012e-05
0.00314247    	1.227131e-02	1.551049e-03	5.267514e-04	1.620973e-03	7.758293e-05
0.00319853    	1.185034e-02	1.527923e-03	5.231923e-04	1.609685e-03	7.488040e-05
0.00325453    	1.185711e-02	1.505688e-03	5.198391e-04	1.597763e-03	7.221699e-05
0.00331048    	1.136347e-02	1.484896e-03	5.162363e-04	1.585115e-03	6.974227e-05
0.00336643    	1.123383e-02	1.465657e-03	5.122237e-04	1.572217e-03	6.750066e-05
0.0034224     	1.079897e-02	1.447752e-03	5.073200e-04	1.557689e-03	6.534432e-05
0.00347845    	1.079886e-02	1.430462e-03	5.007033e-04	1.542302e-03	6.325040e-05
0.00353461    	1.069113e-02	1.413702e-03	4.923580e-04	1.525717e-03	6.115320e-05
0.00359096    	1.077428e-02	1.398900e-03	4.817138e-04	1.510597e-03	5.915767e-05
0.00364763    	1.093929e-02	1.386244e-03	4.683462e-04	1.495739e-03	5.737073e-05
0.00370475    	1.047075e-02	1.376168e-03	4.526524e-04	1.481301e-03	5.584620e-05
0.00376254    	1.091750e-02	1.367845e-03	4.345373e-04	1.467117e-03	5.458334e-05
0.00382106    	1.122198e-02	1.360699e-03	4.148179e-04	1.454881e-03	5.361353e-05
0.00388039    	1.099433e-02	1.355461e-03	3.936174e-04	1.442484e-03	5.293216e-05
0.00394075    	1.138081e-02	1.354878e-03	3.734647e-04	1.435152e-03	5.260680e-05
0.0040021     	1.157927e-02	1.355464e-03	3.531677e-04	1.426689e-03	5.240721e-05
0.00406436    	1.131687e-02	1.356292e-03	3.342742e-04	1.419016e-03	5.231877e-05
0.00412743    	1.090577e-02	1.356682e-03	3.169938e-04	1.411335e-03	5.235187e-05
0.00419109    	1.128320e-02	1.356567e-03	3.009106e-04	1.401378e-03	5.245333e-05
0.00425504    	1.024002e-02	1.352708e-03	2.864019e-04	1.388360e-03	5.256028e-05
0.00431909    	1.005919e-02	1.350684e-03	2.728168e-04	1.373064e-03	5.280089e-05
0.00438313    	1.092551e-02	1.348077e-03	2.615609e-04	1.359010e-03	5.300648e-05
0.00444706    	1.091732e-02	1.344946e-03	2.510284e-04	1.342366e-03	5.316208e-05
0.00451078    	1.097415e-02	1.343972e-03	2.416504e-04	1.324548e-03	5.323413e-05
0.00457414    	1.042320e-02	1.344594e-03	2.333453e-04	1.306423e-03	5.329918e-05
0.00463728    	1.113360e-02	1.350244e-03	2.266348e-04	1.292573e-03	5.361639e-05
0.00470022    	1.086606e-02	1.354485e-03	2.208413e-04	1.280742e-03	5.401371e-05
0.00476298    	1.137437e-02	1.359070e-03	2.161413e-04	1.271299e-03	5.444810e-05
0.00482556    	1.113289e-02	1.363425e-03	2.119522e-04	1.260838e-03	5.507133e-05
0.00488801    	1.153315e-02	1.370076e-03	2.083868e-04	1.252878e-03	5.577656e-05
0.00495035    	1.160663e-02	1.376858e-03	2.052785e-04	1.245622e-03	5.646939e-05
0.00501258    	1.170671e-02	1.383893e-03	2.026438e-04	1.239091e-03	5.708571e-05
0.00507472    	1.233720e-02	1.388305e-03	2.000534e-04	1.232698e-03	5.763866e-05
0.00513674    	1.209325e-02	1.391929e-03	1.977488e-04	1.225444e-03	5.814639e-05
0.00519865    	1.220624e-02	1.394435e-03	1.958554e-04	1.218812e-03	5.877363e-05
0.00526043    	1.227256e-02	1.394296e-03	1.940348e-04	1.212960e-03	5.929056e-05
0.0053221     	1.265147e-02	1.392939e-03	1.924429e-04	1.207354e-03	5.970953e-05
0.00538364    	1.320891e-02	1.389542e-03	1.910884e-04	1.200790e-03	5.996105e-05
0.00544508    	1.288040e-02	1.385693e-03	1.898937e-04	1.194956e-03	6.026434e-05
0.0055064     	1.235965e-02	1.380425e-03	1.887197e-04	1.190259e-03	6.049321e-05
0.00556761    	1.206003e-02	1.373835e-03	1.877732e-04	1.184037e-03	6.077028e-05
0.00562873    	1.236443e-02	1.365788e-03	1.870308e-04	1.179126e-03	6.100345e-05
0.00568973    	1.267643e-02	1.356340e-03	1.861491e-04	1.174418e-03	6.127631e-05
0.00575064    	1.205669e-02	1.346851e-03	1.853762e-04	1.169445e-03	6.149043e-05
0.00581144    	1.164538e-02	1.336427e-03	1.845741e-04	1.164439e-03	6.157033e-05
0.00587216    	1.150198e-02	1.326775e-03	1.839848e-04	1.159956e-03	6.155543e-05
0.0059328     	1.140937e-02	1.317932e-03	1.834100e-04	1.156244e-03	6.158495e-05
0.00599337    	1.154776e-02	1.310272e-03	1.830074e-04	1.152868e-03	6.158601e-05
0.0060539     	1.128343e-02	1.302104e-03	1.827021e-04	1.148841e-03	6.159093e-05
0.00611438    	1.078942e-02	1.293440e-03	1.823894e-04	1.144974e-03	6.153861e-05
0.00617483    	1.093925e-02	1.286175e-03	1.821575e-04	1.142372e-03	6.140483e-05
0.00623525    	1.047897e-02	1.278464e-03	1.817387e-04	1.138919e-03	6.129346e-05
0.00629566    	1.057024e-02	1.271508e-03	1.815704e-04	1.137129e-03	6.122099e-05
0.00635606    	1.083636e-02	1.263875e-03	1.814333e-04	1.135312e-03	6.108174e-05
0.00641648    	1.026160e-02	1.257944e-03	1.817939e-04	1.135196e-03	6.097847e-05
0.00647693    	1.004090e-02	1.249837e-03	1.810270e-04	1.134455e-03	6.088248e-05
0.00653744    	1.074216e-02	1.241204e-03	1.808477e-04	1.134673e-03	6.084440e-05
0.006598      	1.088102e-02	1.233685e-03	1.805184e-04	1.135037e-03	6.083451e-05
0.00665861    	1.086298e-02	1.224927e-03	1.800899e-04	1.134916e-03	6.080758e-05
0.00671928    	1.079482e-02	1.216642e-03	1.794625e-04	1.135040e-03	6.075921e-05
0.00678002    	1.160835e-02	1.207696e-03	1.787089e-04	1.135687e-03	6.072262e-05
0.00684083    	1.149848e-02	1.198418e-03	1.778395e-04	1.136472e-03	6.065168e-05
0.00690171    	1.180688e-02	1.187875e-03	1.768266e-04	1.137025e-03	6.060531e-05
0.00696267    	1.166607e-02	1.176347e-03	1.758918e-04	1.137618e-03	6.054664e-05
0.00702371    	1.195311e-02	1.165566e-03	1.750071e-04	1.139359e-03	6.048073e-05
0.00708484    	1.279705e-02	1.154442e-03	1.742070e-04	1.140625e-03	6.034634e-05
0.00714605    	1.265092e-02	1.142273e-03	1.734471e-04	1.141326e-03	6.012708e-05
0.00720731    	1.263583e-02	1.129881e-03	1.727802e-04	1.142057e-03	5.986056e-05
0.0072686     	1.297487e-02	1.117002e-03	1.720517e-04	1.141830e-03	5.953664e-05
0.0073299     	1.394281e-02	1.104229e-03	1.712813e-04	1.141343e-03	5.917559e-05
0.0073912     	1.427111e-02	1.091859e-03	1.705627e-04	1.139786e-03	5.875438e-05
0.00745249    	1.415008e-02	1.080334e-03	1.699042e-04	1.138407e-03	5.828397e-05
0.00751377    	1.343528e-02	1.068410e-03	1.692523e-04	1.134838e-03	5.778575e-05
0.00757503    	1.336993e-02	1.057212e-03	1.685860e-04	1.131099e-03	5.728074e-05
0.00763627    	1.287376e-02	1.046251e-03	1.678572e-04	1.126246e-03	5.674255e-05
0.00769747    	1.470095e-02	1.036247e-03	1.670597e-04	1.120140e-03	5.618116e-05
0.00775866    	1.279908e-02	1.026580e-03	1.662422e-04	1.113620e-03	5.560913e-05
0.00781983    	1.221596e-02	1.016916e-03	1.654549e-04	1.107096e-03	5.499588e-05
0.007881      	1.206476e-02	1.008707e-03	1.645086e-04	1.099946e-03	5.439368e-05
0.00794217    	1.150328e-02	1.000182e-03	1.634929e-04	1.091270e-03	5.378470e-05
0.00800334    	1.173323e-02	9.936326e-04	1.623907e-04	1.082675e-03	5.317682e-05
0.00806454    	1.163938e-02	9.871715e-04	1.611056e-04	1.073812e-03	5.257446e-05
0.00812577    	1.117503e-02	9.815966e-04	1.597578e-04	1.064381e-03	5.197269e-05
0.00818707    	1.133934e-02	9.766351e-04	1.582428e-04	1.055384e-03	5.136747e-05
0.00824844    	1.087980e-02	9.717339e-04	1.565488e-04	1.046281e-03	5.077443e-05
0.00830988    	1.104069e-02	9.680824e-04	1.548842e-04	1.037664e-03	5.022965e-05
0.00837142    	1.069989e-02	9.648159e-04	1.531436e-04	1.028881e-03	4.971460e-05
0.00843305    	1.049341e-02	9.624460e-04	1.513963e-04	1.020369e-03	4.922928e-05
0.00849478    	1.069091e-02	9.603799e-04	1.498686e-04	1.011986e-03	4.875626e-05
0.00855661    	1.063368e-02	9.579854e-04	1.482948e-04	1.004104e-03	4.831057e-05
0.00861853    	1.043844e-02	9.559991e-04	1.463820e-04	9.954045e-04	4.788145e-05
0.00868054    	1.062971e-02	9.552272e-04	1.450371e-04	9.865290e-04	4.746411e-05
0.00874263    	1.069376e-02	9.550099e-04	1.435814e-04	9.781798e-04	4.707501e-05
0.00880478    	1.056654e-02	9.550301e-04	1.423997e-04	9.703107e-04	4.669047e-05
0.00886697    	1.097917e-02	9.550015e-04	1.414428e-04	9.622370e-04	4.631886e-05
0.0089292     	1.120511e-02	9.552469e-04	1.405335e-04	9.547176e-04	4.596334e-05
0.00899145    	1.094051e-02	9.553921e-04	1.398147e-04	9.472446e-04	4.560229e-05
0.0090537     	1.174260e-02	9.555447e-04	1.391676e-04	9.398923e-04	4.521887e-05
0.0091159     	1.146051e-02	9.556194e-04	1.386055e-04	9.326979e-04	4.481566e-05
0.00917803    	1.228370e-02	9.554068e-04	1.380710e-04	9.257956e-04	4.441839e-05
0.00924008    	1.213135e-02	9.554509e-04	1.376328e-04	9.185546e-04	4.403838e-05
0.00930204    	1.306858e-02	9.552814e-04	1.372187e-04	9.118894e-04	4.366333e-05
0.00936392    	1.306529e-02	9.551728e-04	1.367789e-04	9.050232e-04	4.329032e-05
0.00942573    	1.285691e-02	9.553997e-04	1.363946e-04	8.983497e-04	4.294433e-05
0.00948747    	1.307722e-02	9.562104e-04	1.360294e-04	8.918194e-04	4.261459e-05
0.00954916    	1.365575e-02	9.568121e-04	1.357493e-04	8.852275e-04	4.229301e-05
0.00961079    	1.441826e-02	9.571708e-04	1.354100e-04	8.791070e-04	4.198003e-05
0.00967237    	1.433992e-02	9.565882e-04	1.350689e-04	8.731502e-04	4.167234e-05
0.0097339     	1.363604e-02	9.569191e-04	1.347846e-04	8.676027e-04	4.140265e-05
0.00979538    	1.367873e-02	9.568953e-04	1.343884e-04	8.619475e-04	4.117195e-05
0.00985682    	1.393262e-02	9.562116e-04	1.340018e-04	8.565271e-04	4.097720e-05
0.00991823    	1.359811e-02	9.559403e-04	1.336386e-04	8.514405e-04	4.081808e-05
0.00997961    	1.341356e-02	9.551309e-04	1.332854e-04	8.468235e-04	4.067544e-05
0.0100409     	1.288933e-02	9.534450e-04	1.327564e-04	8.424314e-04	4.054523e-05
0.0101022     	1.254118e-02	9.512815e-04	1.323278e-04	8.385247e-04	4.044335e-05
0.0101635     	1.237576e-02	9.489789e-04	1.318155e-04	8.350814e-04	4.039270e-05
0.0102247     	1.215940e-02	9.460230e-04	1.314116e-04	8.322888e-04	4.038795e-05
0.0102858     	1.204399e-02	9.427479e-04	1.309790e-04	8.307065e-04	4.041968e-05
0.010347      	1.191595e-02	9.392043e-04	1.305652e-04	8.296638e-04	4.048570e-05
0.0104082     	1.184594e-02	9.348872e-04	1.300897e-04	8.288561e-04	4.056594e-05
0.0104693     	1.202723e-02	9.308236e-04	1.296886e-04	8.286937e-04	4.068829e-05
0.0105305     	1.206695e-02	9.258982e-04	1.291733e-04	8.278394e-04	4.079910e-05
0.0105916     	1.242661e-02	9.217212e-04	1.286521e-04	8.274226e-04	4.095082e-05
0.0106527     	1.245817e-02	9.168913e-04	1.281299e-04	8.273678e-04	4.114539e-05
0.0107138     	1.342024e-02	9.134123e-04	1.281600e-04	8.266453e-04	4.139898e-05
0.0107749     	1.162392e-02	9.075858e-04	1.271592e-04	8.269331e-04	4.156723e-05
0.0108361     	1.177109e-02	9.032675e-04	1.266771e-04	8.271140e-04	4.181802e-05
0.0108972     	1.225526e-02	8.977764e-04	1.261077e-04	8.273432e-04	4.207794e-05
0.0109583     	1.177520e-02	8.928253e-04	1.255826e-04	8.278953e-04	4.235035e-05
0.0110194     	1.248151e-02	8.876444e-04	1.250921e-04	8.281020e-04	4.263091e-05
0.0110804     	1.236610e-02	8.821996e-04	1.246353e-04	8.284338e-04	4.291780e-05
0.0111415     	1.277447e-02	8.769905e-04	1.240934e-04	8.287925e-04	4.321798e-05
0.0112025     	1.274909e-02	8.713442e-04	1.236082e-04	8.296990e-04	4.351623e-05
0.0112635     	1.311014e-02	8.661588e-04	1.232131e-04	8.311861e-04	4.382699e-05
0.0113245     	1.419794e-02	8.608440e-04	1.228671e-04	8.323768e-04	4.413785e-05
0.0113855     	1.413514e-02	8.555801e-04	1.224490e-04	8.338924e-04	4.444524e-05
0.0114465     	1.493674e-02	8.503783e-04	1.221639e-04	8.352683e-04	4.475112e-05
0.0115074     	1.475970e-02	8.451445e-04	1.218845e-04	8.364738e-04	4.505226e-05
0.0115683     	1.481735e-02	8.406645e-04	1.216605e-04	8.378302e-04	4.534426e-05
0.0116292     	1.488911e-02	8.360336e-04	1.213768e-04	8.392257e-04	4.563033e-05
0.0116902     	1.531965e-02	8.318799e-04	1.211430e-04	8.399983e-04	4.589862e-05
0.011751      	1.591350e-02	8.280760e-04	1.209126e-04	8.408606e-04	4.615872e-05
0.0118119     	1.661487e-02	8.242679e-04	1.206292e-04	8.410177e-04	4.640218e-05
0.0118728     	1.609401e-02	8.208711e-04	1.205677e-04	8.411229e-04	4.661974e-05
0.0119337     	1.535303e-02	8.173769e-04	1.202283e-04	8.413130e-04	4.682065e-05
0.0119945     	1.471735e-02	8.143029e-04	1.200055e-04	8.405186e-04	4.699910e-05
0.0120554     	1.458847e-02	8.113902e-04	1.196947e-04	8.391852e-04	4.714086e-05
0.0121163     	1.477376e-02	8.087193e-04	1.194964e-04	8.376856e-04	4.726332e-05
0.0121771     	1.421166e-02	8.067279e-04	1.191983e-04	8.359949e-04	4.736673e-05
0.012238      	1.375386e-02	8.049003e-04	1.189260e-04	8.337057e-04	4.744597e-05
0.0122989     	1.341260e-02	8.035864e-04	1.185611e-04	8.311989e-04	4.749327e-05
0.0123597     	1.282016e-02	8.024847e-04	1.182814e-04	8.283940e-04	4.751666e-05
0.0124206     	1.290852e-02	8.021914e-04	1.179405e-04	8.249947e-04	4.751826e-05
0.0124815     	1.242942e-02	8.021775e-04	1.175457e-04	8.211951e-04	4.750668e-05
0.0125424     	1.202418e-02	8.026058e-04	1.171533e-04	8.169839e-04	4.748025e-05
0.0126033     	1.215237e-02	8.032085e-04	1.168384e-04	8.136216e-04	4.744778e-05
0.0126642     	1.191177e-02	8.036825e-04	1.162633e-04	8.094355e-04	4.736893e-05
0.0127252     	1.198349e-02	8.042493e-04	1.157637e-04	8.060898e-04	4.727390e-05
0.0127861     	1.178565e-02	8.054922e-04	1.154323e-04	8.020825e-04	4.714389e-05
0.0128469     	1.168670e-02	8.055416e-04	1.151508e-04	7.986891e-04	4.700289e-05
0.0129078     	1.152950e-02	8.062133e-04	1.142272e-04	7.948350e-04	4.689505e-05
0.0129687     	1.178004e-02	8.071543e-04	1.139120e-04	7.906908e-04	4.671945e-05
0.0130296     	1.205747e-02	8.086763e-04	1.134735e-04	7.871837e-04	4.656563e-05
0.0130906     	1.187881e-02	8.101847e-04	1.131950e-04	7.838847e-04	4.640601e-05
0.0131516     	1.216578e-02	8.115932e-04	1.129531e-04	7.811912e-04	4.624270e-05
0.0132127     	1.214273e-02	8.128536e-04	1.127385e-04	7.783026e-04	4.606720e-05
0.0132738     	1.201635e-02	8.140774e-04	1.125412e-04	7.754607e-04	4.588760e-05
0.013335      	1.299903e-02	8.156162e-04	1.123573e-04	7.733174e-04	4.570134e-05
0.0133963     	1.326833e-02	8.172368e-04	1.122965e-04	7.706917e-04	4.548257e-05
0.0134577     	1.361383e-02	8.191548e-04	1.123075e-04	7.683091e-04	4.526313e-05
0.0135191     	1.352258e-02	8.212100e-04	1.122772e-04	7.657226e-04	4.505268e-05
0.0135806     	1.369096e-02	8.233339e-04	1.123245e-04	7.632187e-04	4.482493e-05
0.0136421     	1.434255e-02	8.255193e-04	1.124141e-04	7.606923e-04	4.459465e-05
0.0137037     	1.510124e-02	8.274015e-04	1.125178e-04	7.579334e-04	4.435338e-05
0.0137654     	1.584104e-02	8.287604e-04	1.124817e-04	7.554959e-04	4.409710e-05
0.013827      	1.533935e-02	8.295454e-04	1.124543e-04	7.525535e-04	4.381395e-05
0.0138887     	1.529016e-02	8.299490e-04	1.124785e-04	7.501642e-04	4.352904e-05
0.0139504     	1.569720e-02	8.298674e-04	1.124242e-04	7.476350e-04	4.323862e-05
0.0140121     	1.605753e-02	8.295663e-04	1.123257e-04	7.456717e-04	4.294535e-05
0.0140738     	1.523161e-02	8.286464e-04	1.122232e-04	7.436465e-04	4.266107e-05
0.0141355     	1.444437e-02	8.273771e-04	1.120954e-04	7.418573e-04	4.238226e-05
0.0141973     	1.433400e-02	8.253394e-04	1.118530e-04	7.402235e-04	4.210305e-05
0.014259      	1.448473e-02	8.229322e-04	1.115971e-04	7.388923e-04	4.183294e-05
0.0143207     	1.410198e-02	8.205363e-04	1.113327e-04	7.376569e-04	4.156850e-05
0.0143824     	1.327659e-02	8.178912e-04	1.110199e-04	7.366298e-04	4.135616e-05
0.0144441     	1.306607e-02	8.152725e-04	1.107331e-04	7.365148e-04	4.114297e-05
0.0145058     	1.296374e-02	8.122733e-04	1.104772e-04	7.364176e-04	4.095220e-05
0.0145675     	1.236163e-02	8.095196e-04	1.101701e-04	7.363863e-04	4.078520e-05
0.0146292     	1.222807e-02	8.069569e-04	1.099509e-04	7.369724e-04	4.062246e-05
0.0146908     	1.190535e-02	8.038139e-04	1.096126e-04	7.375443e-04	4.047997e-05
0.0147525     	1.194269e-02	8.009548e-04	1.093385e-04	7.388326e-04	4.036129e-05
0.0148141     	1.198450e-02	7.977907e-04	1.090876e-04	7.399689e-04	4.025154e-05
0.0148757     	1.214560e-02	7.945557e-04	1.088024e-04	7.413555e-04	4.016067e-05
0.0149374     	1.201444e-02	7.914286e-04	1.085666e-04	7.427099e-04	4.007487e-05
0.014999      	1.291509e-02	7.894090e-04	1.086550e-04	7.440920e-04	3.999481e-05
0.0150607     	1.139383e-02	7.845023e-04	1.080443e-04	7.451971e-04	3.996177e-05
0.0151223     	1.164501e-02	7.808326e-04	1.077217e-04	7.470240e-04	3.988615e-05
0.0151839     	1.194533e-02	7.769087e-04	1.075523e-04	7.486578e-04	3.987013e-05
0.0152456     	1.154074e-02	7.737044e-04	1.072702e-04	7.501780e-04	3.987889e-05
0.0153072     	1.200553e-02	7.700006e-04	1.072079e-04	7.512759e-04	3.990196e-05
0.0153689     	1.184658e-02	7.665655e-04	1.070158e-04	7.522745e-04	3.995450e-05
0.0154305     	1.224027e-02	7.624179e-04	1.069385e-04	7.532993e-04	4.002835e-05
0.0154921     	1.232360e-02	7.584933e-04	1.069030e-04	7.542333e-04	4.011283e-05
0.0155538     	1.308610e-02	7.546377e-04	1.068177e-04	7.549941e-04	4.022740e-05
0.0156154     	1.344500e-02	7.506428e-04	1.067754e-04	7.556052e-04	4.035561e-05
0.015677      	1.337613e-02	7.473305e-04	1.066291e-04	7.558348e-04	4.049623e-05
0.0157387     	1.433941e-02	7.437431e-04	1.066037e-04	7.563146e-04	4.064092e-05
0.0158003     	1.411512e-02	7.401001e-04	1.065764e-04	7.561977e-04	4.079792e-05
0.0158619     	1.424374e-02	7.367656e-04	1.066049e-04	7.561066e-04	4.097646e-05
0.0159235     	1.497878e-02	7.341132e-04	1.066430e-04	7.561062e-04	4.116087e-05
0.0159851     	1.520986e-02	7.311877e-04	1.067155e-04	7.557349e-04	4.136945e-05
0.0160467     	1.559757e-02	7.288911e-04	1.067913e-04	7.552720e-04	4.159167e-05
0.0161083     	1.522080e-02	7.266419e-04	1.068981e-04	7.544906e-04	4.180600e-05
0.0161699     	1.481972e-02	7.245990e-04	1.070212e-04	7.533098e-04	4.203716e-05
0.0162316     	1.509481e-02	7.226711e-04	1.071316e-04	7.517395e-04	4.225624e-05
0.0162932     	1.554360e-02	7.209117e-04	1.072132e-04	7.500479e-04	4.248301e-05
0.0163549     	1.405648e-02	7.191581e-04	1.073359e-04	7.483337e-04	4.268682e-05
0.0164165     	1.353624e-02	7.175885e-04	1.073674e-04	7.457728e-04	4.286977e-05
0.0164781     	1.340960e-02	7.161589e-04	1.073785e-04	7.430281e-04	4.303482e-05
0.0165397     	1.364653e-02	7.159701e-04	1.075527e-04	7.405921e-04	4.319258e-05
0.0166012     	1.272189e-02	7.160705e-04	1.075299e-04	7.380437e-04	4.332880e-05
0.0166628     	1.230002e-02	7.165967e-04	1.076036e-04	7.351983e-04	4.344178e-05
0.0167243     	1.171465e-02	7.173503e-04	1.075972e-04	7.320425e-04	4.352197e-05
0.0167858     	1.179966e-02	7.180441e-04	1.075725e-04	7.291088e-04	4.357849e-05
0.0168472     	1.204085e-02	7.185083e-04	1.075299e-04	7.264026e-04	4.362221e-05
0.0169086     	1.197927e-02	7.189034e-04	1.074547e-04	7.243517e-04	4.365718e-05
0.0169701     	1.185647e-02	7.193271e-04	1.073708e-04	7.217263e-04	4.369391e-05
0.0170315     	1.188645e-02	7.190857e-04	1.071635e-04	7.188253e-04	4.372646e-05
0.0170928     	1.222577e-02	7.188771e-04	1.069742e-04	7.159756e-04	4.372177e-05
0.0171542     	1.726095e-02	7.191423e-04	1.064621e-04	7.137462e-04	4.378267e-05
0.0172155     	1.230250e-02	7.178365e-04	1.065021e-04	7.115213e-04	4.376815e-05
0.0172769     	1.214520e-02	7.168188e-04	1.061024e-04	7.097019e-04	4.374498e-05
0.0173382     	1.168001e-02	7.157265e-04	1.057841e-04	7.076176e-04	4.372541e-05
0.0173995     	1.186088e-02	7.147313e-04	1.054105e-04	7.059795e-04	4.369399e-05
0.0174609     	1.109097e-02	7.132379e-04	1.050736e-04	7.041642e-04	4.363836e-05
0.0175222     	1.134096e-02	7.119995e-04	1.047461e-04	7.027932e-04	4.356720e-05
0.0175836     	1.135457e-02	7.105297e-04	1.044390e-04	7.013099e-04	4.348703e-05
0.017645      	1.153955e-02	7.087692e-04	1.041774e-04	7.000863e-04	4.339177e-05
0.0177065     	1.228086e-02	7.070430e-04	1.039763e-04	6.987611e-04	4.328372e-05
0.017768      	1.211013e-02	7.050290e-04	1.038119e-04	6.971472e-04	4.318043e-05
0.0178295     	1.214722e-02	7.031856e-04	1.036685e-04	6.954887e-04	4.308010e-05
0.017891      	1.250050e-02	7.017302e-04	1.035906e-04	6.938671e-04	4.297056e-05
0.0179526     	1.296831e-02	7.001749e-04	1.036252e-04	6.920265e-04	4.285962e-05
0.0180141     	1.403622e-02	6.986842e-04	1.036035e-04	6.903457e-04	4.273356e-05
0.0180756     	1.380898e-02	6.976476e-04	1.036388e-04	6.886802e-04	4.260915e-05
0.0181371     	1.362779e-02	6.965277e-04	1.036161e-04	6.868423e-04	4.244886e-05
0.0181985     	1.367672e-02	6.953361e-04	1.037014e-04	6.848920e-04	4.226828e-05
0.0182598     	1.386121e-02	6.940562e-04	1.037892e-04	6.830579e-04	4.207490e-05
0.0183211     	1.345452e-02	6.922549e-04	1.038149e-04	6.814000e-04	4.186383e-05
0.0183824     	1.293931e-02	6.894640e-04	1.037993e-04	6.796739e-04	4.162034e-05
0.0184436     	1.264333e-02	6.868688e-04	1.038274e-04	6.785437e-04	4.137359e-05
0.0185047     	1.220514e-02	6.843152e-04	1.038466e-04	6.778538e-04	4.113632e-05
0.0185659     	1.222079e-02	6.813052e-04	1.038831e-04	6.773546e-04	4.089955e-05
0.0186271     	1.182334e-02	6.785923e-04	1.039224e-04	6.776275e-04	4.068371e-05
0.0186884     	1.135497e-02	6.759719e-04	1.039226e-04	6.782539e-04	4.047304e-05
0.0187497     	1.106636e-02	6.734609e-04	1.039492e-04	6.789431e-04	4.025373e-05
0.0188111     	1.079811e-02	6.712426e-04	1.039499e-04	6.797444e-04	4.004103e-05
0.0188725     	1.053426e-02	6.690165e-04	1.039414e-04	6.806264e-04	3.984089e-05
0.0189339     	1.046458e-02	6.667978e-04	1.039360e-04	6.815741e-04	3.965008e-05
0.0189954     	9.985442e-03	6.646343e-04	1.039229e-04	6.827200e-04	3.947147e-05
0.0190569     	9.642785e-03	6.624095e-04	1.039689e-04	6.838886e-04	3.929096e-05
0.0191184     	9.715193e-03	6.600508e-04	1.039001e-04	6.848754e-04	3.910689e-05
0.01918       	9.452625e-03	6.571927e-04	1.038517e-04	6.859091e-04	3.892400e-05
0.0192416     	9.037304e-03	6.543540e-04	1.037702e-04	6.868797e-04	3.873087e-05
0.0193032     	9.447697e-03	6.518000e-04	1.035976e-04	6.884216e-04	3.858709e-05
0.0193648     	1.027572e-02	6.491792e-04	1.037076e-04	6.886556e-04	3.842587e-05
0.0194264     	9.921071e-03	6.471346e-04	1.036312e-04	6.896493e-04	3.827128e-05
0.0194881     	9.675863e-03	6.444662e-04	1.036228e-04	6.905715e-04	3.813989e-05
0.0195498     	9.762100e-03	6.421217e-04	1.036123e-04	6.915749e-04	3.804155e-05
0.0196115     	9.616279e-03	6.397946e-04	1.036269e-04	6.925022e-04	3.797334e-05
0.0196733     	1.045156e-02	6.378963e-04	1.037206e-04	6.932209e-04	3.791893e-05
0.0197351     	1.021417e-02	6.359939e-04	1.037458e-04	6.937824e-04	3.788816e-05
0.019797      	1.045476e-02	6.342044e-04	1.038590e-04	6.942724e-04	3.788497e-05
0.0198589     	1.081551e-02	6.322224e-04	1.038355e-04	6.946201e-04	3.790306e-05
0.0199208     	1.110721e-02	6.306138e-04	1.039383e-04	6.944270e-04	3.792966e-05
0.0199827     	1.216162e-02	6.288027e-04	1.039930e-04	6.943766e-04	3.798117e-05
0.0200447     	1.160846e-02	6.271495e-04	1.040788e-04	6.939235e-04	3.805114e-05
0.0201067     	1.171353e-02	6.256688e-04	1.041465e-04	6.932547e-04	3.813124e-05
0.0201687     	1.251780e-02	6.243737e-04	1.041775e-04	6.923615e-04	3.823375e-05
0.0202307     	1.189568e-02	6.233255e-04	1.042808e-04	6.915262e-04	3.834699e-05
0.0202927     	1.258037e-02	6.220899e-04	1.043776e-04	6.905140e-04	3.847223e-05
0.0203547     	1.236195e-02	6.211584e-04	1.044482e-04	6.892728e-04	3.861277e-05
0.0204167     	1.240574e-02	6.205308e-04	1.045288e-04	6.880115e-04	3.876575e-05
0.0204787     	1.269837e-02	6.200952e-04	1.047063e-04	6.862451e-04	3.891022e-05
0.0205407     	1.207120e-02	6.192296e-04	1.047006e-04	6.839029e-04	3.904141e-05
0.0206026     	1.182036e-02	6.188458e-04	1.046739e-04	6.817813e-04	3.917858e-05
0.0206645     	1.094527e-02	6.186350e-04	1.046931e-04	6.792948e-04	3.930573e-05
0.0207264     	1.111323e-02	6.188585e-04	1.047094e-04	6.766688e-04	3.943213e-05
0.0207882     	1.091766e-02	6.195921e-04	1.047151e-04	6.742291e-04	3.958665e-05
0.02085       	1.026537e-02	6.205110e-04	1.047411e-04	6.719947e-04	3.972210e-05
0.0209117     	1.031203e-02	6.217029e-04	1.047315e-04	6.696687e-04	3.983244e-05
0.0209734     	9.996937e-03	6.229362e-04	1.047179e-04	6.672584e-04	3.994082e-05
0.0210351     	9.767378e-03	6.243579e-04	1.046683e-04	6.655793e-04	4.005728e-05
0.0210968     	9.608939e-03	6.255494e-04	1.046370e-04	6.640287e-04	4.016785e-05
0.0211584     	9.433794e-03	6.267904e-04	1.046137e-04	6.624524e-04	4.026918e-05
0.0212201     	9.733770e-03	6.278517e-04	1.045369e-04	6.607325e-04	4.037252e-05
0.0212817     	9.290117e-03	6.286398e-04	1.044073e-04	6.589216e-04	4.045596e-05
0.0213434     	9.738081e-03	6.295510e-04	1.042904e-04	6.573078e-04	4.055633e-05
0.021405      	8.523471e-03	6.299563e-04	1.041137e-04	6.555011e-04	4.063430e-05
0.0214667     	8.272414e-03	6.309478e-04	1.038392e-04	6.539880e-04	4.081969e-05
0.0215284     	9.067731e-03	6.312346e-04	1.036955e-04	6.521758e-04	4.088319e-05
0.0215901     	8.969644e-03	6.317248e-04	1.034460e-04	6.502864e-04	4.098197e-05
0.0216518     	9.368730e-03	6.320432e-04	1.032054e-04	6.487287e-04	4.109475e-05
0.0217135     	9.146361e-03	6.319582e-04	1.028915e-04	6.470867e-04	4.118923e-05
0.0217753     	9.551650e-03	6.315957e-04	1.026302e-04	6.453329e-04	4.126668e-05
0.0218372     	9.377153e-03	6.311866e-04	1.023105e-04	6.436164e-04	4.134477e-05
0.021899      	9.363518e-03	6.302692e-04	1.019955e-04	6.418055e-04	4.140536e-05
0.0219609     	9.433140e-03	6.291666e-04	1.016771e-04	6.398446e-04	4.143879e-05
0.0220227     	9.492301e-03	6.276847e-04	1.013821e-04	6.377793e-04	4.146087e-05
0.0220846     	1.016541e-02	6.259232e-04	1.010936e-04	6.356351e-04	4.147794e-05
0.0221464     	1.002581e-02	6.239248e-04	1.008395e-04	6.334069e-04	4.148458e-05
0.0222082     	1.012870e-02	6.218200e-04	1.006250e-04	6.309386e-04	4.149494e-05
0.0222698     	1.045467e-02	6.199036e-04	1.004637e-04	6.288131e-04	4.150870e-05
0.0223315     	1.118083e-02	6.181657e-04	1.003577e-04	6.268423e-04	4.152945e-05