# Probe 0 (0.128 0.01 0.01)
# Time        0            
