# Residuals   
# Time        	p             	Ux            	Uy            	Uz            	k             	omega         
0.100003      	N/A           	N/A           	N/A           	N/A           	N/A           	N/A           
