# Wall shear stress
# Time        	patch         	min           	max           
0.000000e+00	propellerTip	(0.000000e+00 0.000000e+00 0.000000e+00)	(0.000000e+00 0.000000e+00 0.000000e+00)
6.867897e-05	propellerTip	(-2.754910e+01 -2.679661e+01 -1.220377e+01)	(2.802251e+01 7.765621e+01 5.706965e+01)
1.740001e-04	propellerTip	(-3.714135e+00 -4.546776e+00 -4.376025e+00)	(3.686865e+00 1.771568e+01 5.943033e+00)
2.921534e-04	propellerTip	(-3.710345e+00 -4.687178e+00 -3.302224e+00)	(3.705285e+00 8.016713e+00 3.195805e+00)
4.184629e-04	propellerTip	(-3.170951e+00 -4.978450e+00 -4.004028e+00)	(3.191751e+00 4.640927e+00 4.042108e+00)
5.493893e-04	propellerTip	(-2.767518e+00 -5.303418e+00 -4.595596e+00)	(2.630722e+00 2.851701e+00 4.645335e+00)
6.810150e-04	propellerTip	(-2.790623e+00 -5.605606e+00 -5.052133e+00)	(2.760772e+00 2.566283e+00 5.084305e+00)
8.131820e-04	propellerTip	(-3.487468e+00 -5.838384e+00 -5.496831e+00)	(3.478030e+00 2.596203e+00 5.528393e+00)
9.465668e-04	propellerTip	(-4.016865e+00 -6.007530e+00 -5.965398e+00)	(4.015263e+00 2.654143e+00 6.000979e+00)
1.081369e-03	propellerTip	(-4.096129e+00 -6.134000e+00 -6.188499e+00)	(4.122248e+00 2.723133e+00 6.215838e+00)
1.216871e-03	propellerTip	(-4.048632e+00 -6.234307e+00 -6.293757e+00)	(4.060616e+00 2.803518e+00 6.311189e+00)
1.352223e-03	propellerTip	(-3.994140e+00 -6.316610e+00 -6.289209e+00)	(4.011502e+00 2.891766e+00 6.302233e+00)
1.486899e-03	propellerTip	(-3.986467e+00 -6.387158e+00 -6.300087e+00)	(3.981816e+00 2.986646e+00 6.313137e+00)
1.620793e-03	propellerTip	(-4.185396e+00 -6.450355e+00 -6.323931e+00)	(4.147372e+00 3.088629e+00 6.334425e+00)
1.754167e-03	propellerTip	(-4.378601e+00 -6.512023e+00 -6.334506e+00)	(4.340355e+00 3.194650e+00 6.340418e+00)
1.887238e-03	propellerTip	(-4.563844e+00 -6.574304e+00 -6.320465e+00)	(4.524682e+00 3.300986e+00 6.320549e+00)
2.020149e-03	propellerTip	(-4.740995e+00 -6.650304e+00 -6.278668e+00)	(4.700846e+00 3.406954e+00 6.273038e+00)
2.152992e-03	propellerTip	(-4.908511e+00 -6.729209e+00 -6.195081e+00)	(4.867585e+00 3.511510e+00 6.184224e+00)
2.285767e-03	propellerTip	(-5.063846e+00 -6.809832e+00 -6.077657e+00)	(5.022259e+00 3.619089e+00 6.062456e+00)
2.418474e-03	propellerTip	(-5.204139e+00 -6.890400e+00 -5.937664e+00)	(5.163230e+00 3.731565e+00 5.919283e+00)
2.551139e-03	propellerTip	(-5.329586e+00 -6.966427e+00 -5.781580e+00)	(5.288199e+00 3.851289e+00 5.761010e+00)
2.683750e-03	propellerTip	(-5.441972e+00 -7.029059e+00 -5.613375e+00)	(5.400483e+00 3.974291e+00 5.591093e+00)
2.816318e-03	propellerTip	(-5.539238e+00 -7.086778e+00 -5.434066e+00)	(5.497429e+00 4.089286e+00 5.410299e+00)
2.948902e-03	propellerTip	(-5.619341e+00 -7.145489e+00 -5.243188e+00)	(5.577659e+00 4.204783e+00 5.222196e+00)
3.081472e-03	propellerTip	(-5.679901e+00 -7.212281e+00 -5.065671e+00)	(5.638435e+00 4.322269e+00 5.056064e+00)
3.213926e-03	propellerTip	(-5.721164e+00 -7.284617e+00 -4.890180e+00)	(5.679769e+00 4.443199e+00 4.881130e+00)
3.346171e-03	propellerTip	(-5.747849e+00 -7.344537e+00 -4.707271e+00)	(5.705854e+00 4.570094e+00 4.698737e+00)
3.478175e-03	propellerTip	(-5.758269e+00 -7.392043e+00 -4.517382e+00)	(5.716144e+00 4.703861e+00 4.509660e+00)
3.609937e-03	propellerTip	(-5.749880e+00 -7.433595e+00 -4.770020e+00)	(5.708025e+00 4.834492e+00 4.791015e+00)
3.741524e-03	propellerTip	(-5.720724e+00 -7.470499e+00 -5.065356e+00)	(5.678776e+00 4.966598e+00 5.092550e+00)
3.872968e-03	propellerTip	(-5.670704e+00 -7.500184e+00 -5.381906e+00)	(5.628515e+00 5.093595e+00 5.410872e+00)
4.004348e-03	propellerTip	(-5.766904e+00 -7.524718e+00 -5.704427e+00)	(5.664290e+00 5.219153e+00 5.735043e+00)
4.135749e-03	propellerTip	(-5.880321e+00 -7.547078e+00 -6.030753e+00)	(5.769845e+00 5.343885e+00 6.062256e+00)
4.267202e-03	propellerTip	(-5.982990e+00 -7.573433e+00 -6.358042e+00)	(5.863531e+00 5.466055e+00 6.391084e+00)
4.398728e-03	propellerTip	(-6.077344e+00 -7.595848e+00 -6.687504e+00)	(5.947551e+00 5.587560e+00 6.721718e+00)
4.530358e-03	propellerTip	(-6.162401e+00 -7.620673e+00 -7.016722e+00)	(6.023050e+00 5.707087e+00 7.051954e+00)
4.662137e-03	propellerTip	(-6.233032e+00 -7.646980e+00 -7.343223e+00)	(6.082428e+00 5.821207e+00 7.379889e+00)
4.794104e-03	propellerTip	(-6.289244e+00 -7.674406e+00 -7.665499e+00)	(6.130972e+00 5.932368e+00 7.703579e+00)
4.926291e-03	propellerTip	(-6.334956e+00 -7.699553e+00 -7.981834e+00)	(6.170040e+00 6.041222e+00 8.021267e+00)
5.058731e-03	propellerTip	(-6.367016e+00 -7.719665e+00 -8.290078e+00)	(6.201961e+00 6.148449e+00 8.331367e+00)
5.191433e-03	propellerTip	(-6.384731e+00 -7.738759e+00 -8.588811e+00)	(6.236125e+00 6.251442e+00 8.632270e+00)
5.324357e-03	propellerTip	(-6.393588e+00 -7.754696e+00 -8.875770e+00)	(6.270226e+00 6.355025e+00 8.921389e+00)
5.457463e-03	propellerTip	(-6.402236e+00 -7.764990e+00 -9.148805e+00)	(6.298191e+00 6.458701e+00 9.196191e+00)
5.590683e-03	propellerTip	(-6.384904e+00 -7.771359e+00 -9.406433e+00)	(6.286911e+00 6.560391e+00 9.455320e+00)
5.723945e-03	propellerTip	(-6.418777e+00 -7.774580e+00 -9.646637e+00)	(6.309800e+00 6.661026e+00 9.696027e+00)
5.857217e-03	propellerTip	(-6.418992e+00 -7.776361e+00 -9.866900e+00)	(6.303319e+00 6.757927e+00 9.916234e+00)
5.990472e-03	propellerTip	(-6.396745e+00 -7.771917e+00 -1.006409e+01)	(6.272426e+00 6.846296e+00 1.011252e+01)
6.123605e-03	propellerTip	(-6.404375e+00 -7.763113e+00 -1.023507e+01)	(6.260725e+00 6.924943e+00 1.028282e+01)
6.256565e-03	propellerTip	(-6.400759e+00 -7.755556e+00 -1.038385e+01)	(6.280728e+00 6.997817e+00 1.042978e+01)
6.389304e-03	propellerTip	(-6.331715e+00 -7.750937e+00 -1.050040e+01)	(6.255775e+00 7.061900e+00 1.054447e+01)
6.521777e-03	propellerTip	(-6.251864e+00 -7.745449e+00 -1.058598e+01)	(6.179038e+00 7.112609e+00 1.062739e+01)
6.653963e-03	propellerTip	(-6.187306e+00 -7.739658e+00 -1.064187e+01)	(6.099020e+00 7.149613e+00 1.068018e+01)
6.785817e-03	propellerTip	(-6.191859e+00 -7.733694e+00 -1.066832e+01)	(6.027381e+00 7.189497e+00 1.070304e+01)
6.917355e-03	propellerTip	(-6.151025e+00 -7.732625e+00 -1.066655e+01)	(5.946635e+00 7.231526e+00 1.069754e+01)
7.048578e-03	propellerTip	(-6.019337e+00 -7.728523e+00 -1.063632e+01)	(5.838432e+00 7.271080e+00 1.066410e+01)
7.179678e-03	propellerTip	(-5.839003e+00 -7.723223e+00 -1.057849e+01)	(5.688861e+00 7.308963e+00 1.060343e+01)
7.310681e-03	propellerTip	(-5.674779e+00 -7.725728e+00 -1.049344e+01)	(5.517758e+00 7.344299e+00 1.051561e+01)
7.441578e-03	propellerTip	(-5.480487e+00 -7.740874e+00 -1.037992e+01)	(5.342689e+00 7.376185e+00 1.039909e+01)
7.572379e-03	propellerTip	(-5.282525e+00 -7.763102e+00 -1.023730e+01)	(5.179004e+00 7.401167e+00 1.025375e+01)
7.703035e-03	propellerTip	(-5.099647e+00 -7.791642e+00 -1.006678e+01)	(5.028103e+00 7.414656e+00 1.008085e+01)
7.833529e-03	propellerTip	(-5.505367e+00 -7.830993e+00 -9.866702e+00)	(5.516978e+00 7.425373e+00 9.878607e+00)
7.963851e-03	propellerTip	(-6.010482e+00 -7.884296e+00 -9.635728e+00)	(6.023325e+00 7.439120e+00 9.645361e+00)
8.093976e-03	propellerTip	(-6.487532e+00 -7.931090e+00 -9.376571e+00)	(6.501347e+00 7.455469e+00 9.384155e+00)
8.223914e-03	propellerTip	(-6.947096e+00 -7.978177e+00 -9.091328e+00)	(6.961528e+00 7.472166e+00 9.096973e+00)
8.353718e-03	propellerTip	(-7.388772e+00 -8.025882e+00 -8.781208e+00)	(7.403874e+00 7.489835e+00 8.785160e+00)
8.483365e-03	propellerTip	(-7.803675e+00 -8.060020e+00 -8.445279e+00)	(7.820804e+00 7.511546e+00 8.447361e+00)
8.613142e-03	propellerTip	(-8.235081e+00 -8.087149e+00 -8.086488e+00)	(8.250673e+00 7.526429e+00 8.086291e+00)
8.743376e-03	propellerTip	(-8.660830e+00 -8.107039e+00 -7.706790e+00)	(8.677314e+00 7.535094e+00 7.704065e+00)
8.874432e-03	propellerTip	(-9.073371e+00 -8.120340e+00 -7.302503e+00)	(9.090969e+00 7.542064e+00 7.297713e+00)
9.006705e-03	propellerTip	(-9.471118e+00 -8.122553e+00 -6.950712e+00)	(9.490209e+00 7.552524e+00 6.952369e+00)
9.140613e-03	propellerTip	(-9.854170e+00 -8.116878e+00 -7.142009e+00)	(9.874717e+00 7.563633e+00 7.157821e+00)
9.276367e-03	propellerTip	(-1.022041e+01 -8.106563e+00 -6.871281e+00)	(1.024263e+01 7.577376e+00 6.942609e+00)
9.414129e-03	propellerTip	(-1.056781e+01 -8.094831e+00 -5.496603e+00)	(1.059194e+01 7.594028e+00 5.486486e+00)
9.554272e-03	propellerTip	(-1.089440e+01 -8.067890e+00 -5.006807e+00)	(1.092055e+01 7.612357e+00 4.996065e+00)
9.696759e-03	propellerTip	(-1.119752e+01 -8.038067e+00 -4.507266e+00)	(1.122591e+01 7.635003e+00 4.496131e+00)
9.841250e-03	propellerTip	(-1.147358e+01 -8.005943e+00 -4.001229e+00)	(1.150427e+01 7.659978e+00 3.988351e+00)
9.987388e-03	propellerTip	(-1.171783e+01 -7.968525e+00 -3.563764e+00)	(1.175014e+01 7.684746e+00 3.479476e+00)
1.013475e-02	propellerTip	(-1.192642e+01 -7.921526e+00 -3.336156e+00)	(1.195927e+01 7.710649e+00 3.239622e+00)
1.028282e-02	propellerTip	(-1.209457e+01 -7.862214e+00 -3.066047e+00)	(1.212701e+01 7.739192e+00 3.091047e+00)
1.043106e-02	propellerTip	(-1.221642e+01 -7.795082e+00 -2.902158e+00)	(1.224951e+01 7.764210e+00 2.991043e+00)
1.057903e-02	propellerTip	(-1.228912e+01 -7.720714e+00 -2.857953e+00)	(1.232291e+01 7.778858e+00 2.919554e+00)
1.072600e-02	propellerTip	(-1.231305e+01 -7.638708e+00 -2.792905e+00)	(1.234659e+01 7.776688e+00 2.827247e+00)
1.087219e-02	propellerTip	(-1.228835e+01 -7.551624e+00 -2.781040e+00)	(1.232110e+01 7.753643e+00 2.779057e+00)
1.101767e-02	propellerTip	(-1.221403e+01 -7.460476e+00 -2.780858e+00)	(1.224543e+01 7.707913e+00 2.779439e+00)
1.116254e-02	propellerTip	(-1.209151e+01 -7.361346e+00 -2.767052e+00)	(1.212060e+01 7.637840e+00 2.766302e+00)
1.130693e-02	propellerTip	(-1.192679e+01 -7.260511e+00 -2.739344e+00)	(1.195232e+01 7.540925e+00 2.739586e+00)
1.145096e-02	propellerTip	(-1.172407e+01 -7.151526e+00 -2.701394e+00)	(1.174632e+01 7.428204e+00 2.702821e+00)
1.159477e-02	propellerTip	(-1.148317e+01 -7.034039e+00 -2.694371e+00)	(1.150264e+01 7.302434e+00 2.657589e+00)
1.173841e-02	propellerTip	(-1.121043e+01 -6.909738e+00 -2.684704e+00)	(1.122668e+01 7.168356e+00 2.628972e+00)
1.188189e-02	propellerTip	(-1.091268e+01 -6.779202e+00 -2.669616e+00)	(1.092605e+01 7.029008e+00 2.646209e+00)
1.202525e-02	propellerTip	(-1.059500e+01 -6.645304e+00 -2.656409e+00)	(1.060577e+01 6.879796e+00 2.654303e+00)
1.216851e-02	propellerTip	(-1.026214e+01 -6.517397e+00 -2.661406e+00)	(1.027141e+01 6.727206e+00 2.668855e+00)
1.231165e-02	propellerTip	(-9.919278e+00 -6.405249e+00 -2.754565e+00)	(9.927462e+00 6.579819e+00 2.739939e+00)
1.245467e-02	propellerTip	(-9.571892e+00 -6.293854e+00 -3.040954e+00)	(9.579061e+00 6.438873e+00 3.024865e+00)
1.259755e-02	propellerTip	(-9.221733e+00 -6.186623e+00 -3.317572e+00)	(9.228341e+00 6.304680e+00 3.299515e+00)
1.274029e-02	propellerTip	(-8.870879e+00 -6.083176e+00 -3.580706e+00)	(8.876968e+00 6.174064e+00 3.555959e+00)
1.288289e-02	propellerTip	(-8.519812e+00 -5.982315e+00 -3.814195e+00)	(8.525247e+00 6.043739e+00 3.789891e+00)
1.302536e-02	propellerTip	(-8.166900e+00 -5.885223e+00 -4.034606e+00)	(8.171246e+00 5.916531e+00 4.011351e+00)
1.316770e-02	propellerTip	(-7.814087e+00 -5.790763e+00 -4.246098e+00)	(7.817542e+00 5.792794e+00 4.223172e+00)
1.330993e-02	propellerTip	(-7.462661e+00 -5.695608e+00 -4.463217e+00)	(7.466097e+00 5.672113e+00 4.438435e+00)
1.345203e-02	propellerTip	(-7.113527e+00 -5.605672e+00 -4.673484e+00)	(7.117321e+00 5.557156e+00 4.643417e+00)
1.359401e-02	propellerTip	(-6.765362e+00 -5.521175e+00 -4.834777e+00)	(6.769515e+00 5.453049e+00 4.800458e+00)
1.373590e-02	propellerTip	(-6.419448e+00 -5.443580e+00 -4.980328e+00)	(6.424227e+00 5.355435e+00 4.951425e+00)
1.387770e-02	propellerTip	(-6.077875e+00 -5.375436e+00 -5.154639e+00)	(6.083691e+00 5.249483e+00 5.125019e+00)
1.401943e-02	propellerTip	(-5.739784e+00 -5.315193e+00 -5.320601e+00)	(5.746684e+00 5.145059e+00 5.290735e+00)
1.416111e-02	propellerTip	(-5.404780e+00 -5.262525e+00 -5.479459e+00)	(5.412776e+00 5.046893e+00 5.449881e+00)
1.430276e-02	propellerTip	(-5.073093e+00 -5.215901e+00 -5.632277e+00)	(5.081855e+00 4.957196e+00 5.603185e+00)
1.444441e-02	propellerTip	(-4.744942e+00 -5.177724e+00 -5.779251e+00)	(4.754231e+00 4.878194e+00 5.751310e+00)
1.458611e-02	propellerTip	(-4.420613e+00 -5.144049e+00 -5.921392e+00)	(4.430021e+00 4.810043e+00 5.894996e+00)
1.472788e-02	propellerTip	(-4.100203e+00 -5.108435e+00 -6.058166e+00)	(4.109117e+00 4.752805e+00 6.034541e+00)
1.486971e-02	propellerTip	(-3.782879e+00 -5.072564e+00 -6.188644e+00)	(3.791140e+00 4.707375e+00 6.166618e+00)
1.501151e-02	propellerTip	(-3.468453e+00 -5.048726e+00 -6.312240e+00)	(3.476063e+00 4.672932e+00 6.290727e+00)
1.515337e-02	propellerTip	(-3.156755e+00 -5.024560e+00 -6.429234e+00)	(3.163630e+00 4.649401e+00 6.407094e+00)
1.529532e-02	propellerTip	(-2.846363e+00 -5.003606e+00 -6.539243e+00)	(2.852708e+00 4.634437e+00 6.515666e+00)
1.543736e-02	propellerTip	(-2.673784e+00 -4.986855e+00 -6.642455e+00)	(2.708013e+00 4.627625e+00 6.619006e+00)
1.557951e-02	propellerTip	(-2.664579e+00 -4.971529e+00 -6.738097e+00)	(2.686923e+00 4.628015e+00 6.715195e+00)
1.572175e-02	propellerTip	(-2.657538e+00 -4.956440e+00 -6.825876e+00)	(2.676685e+00 4.634082e+00 6.803733e+00)
1.586409e-02	propellerTip	(-2.636562e+00 -4.941612e+00 -6.905263e+00)	(2.654158e+00 4.644619e+00 6.883696e+00)
1.600654e-02	propellerTip	(-2.628699e+00 -4.929660e+00 -6.974397e+00)	(2.646368e+00 4.658025e+00 6.953306e+00)
1.614909e-02	propellerTip	(-2.626027e+00 -4.920134e+00 -7.033670e+00)	(2.645215e+00 4.673277e+00 7.013091e+00)
1.629174e-02	propellerTip	(-2.636639e+00 -4.912277e+00 -7.083922e+00)	(2.661599e+00 4.691207e+00 7.063959e+00)
1.643449e-02	propellerTip	(-2.639906e+00 -4.905321e+00 -7.121087e+00)	(2.670687e+00 4.706003e+00 7.101550e+00)
1.657727e-02	propellerTip	(-2.644450e+00 -4.898530e+00 -7.142497e+00)	(2.680616e+00 4.714658e+00 7.123345e+00)
1.672005e-02	propellerTip	(-2.656482e+00 -4.892310e+00 -7.151538e+00)	(2.698965e+00 4.725064e+00 7.132632e+00)
1.686278e-02	propellerTip	(-2.684954e+00 -4.886869e+00 -7.150801e+00)	(2.732863e+00 4.744078e+00 7.132063e+00)
1.700545e-02	propellerTip	(-2.709802e+00 -4.881548e+00 -7.139863e+00)	(2.763713e+00 4.768389e+00 7.120891e+00)
1.714805e-02	propellerTip	(-2.747227e+00 -4.876000e+00 -7.117579e+00)	(2.806624e+00 4.790911e+00 7.098631e+00)
1.729059e-02	propellerTip	(-2.791254e+00 -4.869288e+00 -7.082931e+00)	(2.832152e+00 4.810965e+00 7.064454e+00)
1.743305e-02	propellerTip	(-2.802824e+00 -4.861968e+00 -7.036506e+00)	(2.847357e+00 4.827636e+00 7.018539e+00)
1.757544e-02	propellerTip	(-2.798392e+00 -4.854779e+00 -6.977684e+00)	(2.848721e+00 4.836691e+00 6.960215e+00)
1.771778e-02	propellerTip	(-2.784923e+00 -4.848284e+00 -6.904513e+00)	(2.835966e+00 4.846791e+00 6.887737e+00)
1.786011e-02	propellerTip	(-2.869157e+00 -4.842601e+00 -6.817161e+00)	(2.869113e+00 4.856838e+00 6.801431e+00)
1.800248e-02	propellerTip	(-3.152621e+00 -4.837541e+00 -6.714820e+00)	(3.154480e+00 4.868417e+00 6.700038e+00)
1.814492e-02	propellerTip	(-3.435251e+00 -4.833603e+00 -6.599664e+00)	(3.435360e+00 4.883094e+00 6.585656e+00)
1.828743e-02	propellerTip	(-3.730843e+00 -4.833133e+00 -6.471756e+00)	(3.722826e+00 4.897127e+00 6.458422e+00)
1.843001e-02	propellerTip	(-4.023539e+00 -4.833021e+00 -6.331096e+00)	(4.015026e+00 4.909467e+00 6.318515e+00)
1.857267e-02	propellerTip	(-4.310390e+00 -4.830223e+00 -6.177369e+00)	(4.301716e+00 4.920932e+00 6.165635e+00)
1.871541e-02	propellerTip	(-4.590446e+00 -4.825692e+00 -6.010557e+00)	(4.581649e+00 4.931913e+00 5.999730e+00)
1.885825e-02	propellerTip	(-4.860929e+00 -4.823309e+00 -5.830473e+00)	(4.853676e+00 4.941443e+00 5.820526e+00)
1.900121e-02	propellerTip	(-5.121664e+00 -4.823188e+00 -5.636806e+00)	(5.114749e+00 4.948917e+00 5.627649e+00)
1.914431e-02	propellerTip	(-5.373491e+00 -4.827618e+00 -5.429743e+00)	(5.366858e+00 4.955579e+00 5.421233e+00)
1.928756e-02	propellerTip	(-5.616143e+00 -4.827174e+00 -5.209664e+00)	(5.609702e+00 4.962947e+00 5.202187e+00)
1.943098e-02	propellerTip	(-5.848912e+00 -4.825348e+00 -4.977802e+00)	(5.843263e+00 4.971742e+00 4.971305e+00)
1.957463e-02	propellerTip	(-6.070204e+00 -4.829978e+00 -4.734402e+00)	(6.065262e+00 4.979720e+00 4.729071e+00)
1.971853e-02	propellerTip	(-6.281336e+00 -4.836701e+00 -4.480438e+00)	(6.276458e+00 4.989085e+00 4.476130e+00)
1.986261e-02	propellerTip	(-6.480705e+00 -4.841461e+00 -4.216374e+00)	(6.475704e+00 4.999000e+00 4.212923e+00)
2.000684e-02	propellerTip	(-6.667482e+00 -4.844674e+00 -3.942447e+00)	(6.662321e+00 5.008869e+00 3.939938e+00)
2.015123e-02	propellerTip	(-6.840879e+00 -4.848464e+00 -3.660245e+00)	(6.835704e+00 5.020651e+00 3.656430e+00)
2.029578e-02	propellerTip	(-6.999832e+00 -4.852019e+00 -3.361783e+00)	(6.994749e+00 5.033820e+00 3.355730e+00)
2.044044e-02	propellerTip	(-7.144342e+00 -4.855423e+00 -3.049939e+00)	(7.139517e+00 5.047066e+00 3.042695e+00)
2.058509e-02	propellerTip	(-7.274460e+00 -4.858421e+00 -2.728852e+00)	(7.270006e+00 5.060603e+00 2.721083e+00)
2.072968e-02	propellerTip	(-7.390750e+00 -4.861103e+00 -2.620365e+00)	(7.385843e+00 5.074326e+00 2.696292e+00)
2.087416e-02	propellerTip	(-7.498366e+00 -4.864074e+00 -2.612662e+00)	(7.490114e+00 5.088926e+00 2.688544e+00)
2.101851e-02	propellerTip	(-7.590759e+00 -4.868326e+00 -2.596103e+00)	(7.582765e+00 5.103118e+00 2.675087e+00)
2.116268e-02	propellerTip	(-7.666677e+00 -4.871707e+00 -2.594722e+00)	(7.658504e+00 5.116478e+00 2.664849e+00)
2.130665e-02	propellerTip	(-7.726567e+00 -4.874805e+00 -2.592897e+00)	(7.718527e+00 5.124254e+00 2.649150e+00)
2.145042e-02	propellerTip	(-7.769391e+00 -4.877920e+00 -2.583642e+00)	(7.761950e+00 5.126512e+00 2.624752e+00)
2.159401e-02	propellerTip	(-7.793133e+00 -4.881064e+00 -2.566660e+00)	(7.786109e+00 5.122911e+00 2.593369e+00)
2.173742e-02	propellerTip	(-7.797979e+00 -4.883540e+00 -2.541122e+00)	(7.791743e+00 5.116269e+00 2.561468e+00)
2.188069e-02	propellerTip	(-7.787033e+00 -4.885156e+00 -2.505399e+00)	(7.781589e+00 5.115673e+00 2.520007e+00)
2.202384e-02	propellerTip	(-7.762039e+00 -4.886172e+00 -2.459689e+00)	(7.757454e+00 5.113648e+00 2.488618e+00)
2.216692e-02	propellerTip	(-7.723069e+00 -4.886322e+00 -2.415263e+00)	(7.719609e+00 5.108115e+00 2.467082e+00)
2.230992e-02	propellerTip	(-7.668627e+00 -4.885837e+00 -2.374734e+00)	(7.666482e+00 5.100671e+00 2.424826e+00)
2.245287e-02	propellerTip	(-7.598997e+00 -4.884857e+00 -2.326625e+00)	(7.598214e+00 5.092681e+00 2.377707e+00)
2.259578e-02	propellerTip	(-7.513724e+00 -4.883199e+00 -2.271271e+00)	(7.514614e+00 5.081726e+00 2.325024e+00)
2.273865e-02	propellerTip	(-7.413396e+00 -4.881888e+00 -2.244870e+00)	(7.415831e+00 5.070612e+00 2.263357e+00)
2.288149e-02	propellerTip	(-7.298295e+00 -4.880094e+00 -2.583826e+00)	(7.302166e+00 5.058949e+00 2.583176e+00)
2.302432e-02	propellerTip	(-7.167906e+00 -4.878343e+00 -2.912825e+00)	(7.173191e+00 5.042615e+00 2.912010e+00)
2.316713e-02	propellerTip	(-7.023075e+00 -4.877976e+00 -3.211238e+00)	(7.029178e+00 5.027729e+00 3.206300e+00)
2.330994e-02	propellerTip	(-6.865501e+00 -4.878658e+00 -3.484303e+00)	(6.872280e+00 5.019187e+00 3.479717e+00)
2.345273e-02	propellerTip	(-6.695213e+00 -4.874991e+00 -3.751477e+00)	(6.702511e+00 5.011862e+00 3.746741e+00)
2.359548e-02	propellerTip	(-6.512269e+00 -4.868123e+00 -4.011020e+00)	(6.520046e+00 5.004417e+00 4.005614e+00)
2.373817e-02	propellerTip	(-6.317111e+00 -4.860147e+00 -4.266276e+00)	(6.325001e+00 4.996545e+00 4.264776e+00)
2.388081e-02	propellerTip	(-6.109902e+00 -4.852917e+00 -4.526732e+00)	(6.117858e+00 4.985349e+00 4.524255e+00)
2.402343e-02	propellerTip	(-5.890137e+00 -4.846377e+00 -4.777396e+00)	(5.898245e+00 4.972244e+00 4.773598e+00)
2.416606e-02	propellerTip	(-5.658093e+00 -4.840330e+00 -5.017895e+00)	(5.666507e+00 4.956868e+00 5.012085e+00)
2.430868e-02	propellerTip	(-5.414554e+00 -4.827657e+00 -5.246071e+00)	(5.423670e+00 4.939873e+00 5.237478e+00)
2.445133e-02	propellerTip	(-5.160644e+00 -4.814819e+00 -5.461217e+00)	(5.170641e+00 4.924564e+00 5.451302e+00)
2.459399e-02	propellerTip	(-4.897593e+00 -4.805869e+00 -5.663809e+00)	(4.909175e+00 4.909339e+00 5.652947e+00)
2.473663e-02	propellerTip	(-4.626813e+00 -4.798108e+00 -5.853556e+00)	(4.637120e+00 4.894304e+00 5.842140e+00)
2.487925e-02	propellerTip	(-4.343583e+00 -4.787711e+00 -6.029402e+00)	(4.352171e+00 4.880492e+00 6.017163e+00)
2.502187e-02	propellerTip	(-4.049925e+00 -4.774949e+00 -6.188794e+00)	(4.057058e+00 4.866310e+00 6.175501e+00)
2.516447e-02	propellerTip	(-3.748597e+00 -4.761565e+00 -6.333685e+00)	(3.754324e+00 4.852982e+00 6.319820e+00)
2.530709e-02	propellerTip	(-3.440077e+00 -4.746829e+00 -6.464041e+00)	(3.445411e+00 4.839914e+00 6.449799e+00)
2.544970e-02	propellerTip	(-3.130563e+00 -4.730625e+00 -6.579796e+00)	(3.137349e+00 4.826541e+00 6.565215e+00)
2.559228e-02	propellerTip	(-2.820814e+00 -4.711961e+00 -6.680789e+00)	(2.885810e+00 4.813125e+00 6.666010e+00)
2.573481e-02	propellerTip	(-2.732488e+00 -4.692110e+00 -6.766377e+00)	(2.865756e+00 4.800061e+00 6.751710e+00)
2.587727e-02	propellerTip	(-2.692248e+00 -4.672782e+00 -6.836570e+00)	(2.837880e+00 4.787371e+00 6.822118e+00)
2.601965e-02	propellerTip	(-2.654867e+00 -4.651568e+00 -6.892469e+00)	(2.803931e+00 4.774947e+00 6.878060e+00)
2.616193e-02	propellerTip	(-2.656905e+00 -4.629631e+00 -6.937345e+00)	(2.766655e+00 4.763508e+00 6.926273e+00)
2.630413e-02	propellerTip	(-2.631955e+00 -4.607395e+00 -6.972043e+00)	(2.722572e+00 4.753262e+00 6.960612e+00)
2.644627e-02	propellerTip	(-2.602591e+00 -4.584837e+00 -6.992451e+00)	(2.672436e+00 4.741129e+00 6.980439e+00)
2.658837e-02	propellerTip	(-2.567188e+00 -4.561803e+00 -6.998175e+00)	(2.616723e+00 4.725396e+00 6.985574e+00)
2.673041e-02	propellerTip	(-2.525244e+00 -4.538884e+00 -6.988113e+00)	(2.556094e+00 4.707892e+00 6.975032e+00)
2.687240e-02	propellerTip	(-2.479070e+00 -4.517387e+00 -6.963714e+00)	(2.491556e+00 4.692461e+00 6.950118e+00)
2.701436e-02	propellerTip	(-2.428800e+00 -4.494522e+00 -6.925084e+00)	(2.424150e+00 4.679608e+00 6.910975e+00)
2.715629e-02	propellerTip	(-2.374094e+00 -4.470185e+00 -6.872549e+00)	(2.352527e+00 4.660402e+00 6.858021e+00)
2.729819e-02	propellerTip	(-2.314698e+00 -4.444939e+00 -6.807306e+00)	(2.276452e+00 4.636460e+00 6.792638e+00)
2.744007e-02	propellerTip	(-2.251874e+00 -4.419452e+00 -6.729840e+00)	(2.197017e+00 4.612842e+00 6.714949e+00)
2.758194e-02	propellerTip	(-2.185392e+00 -4.393493e+00 -6.641746e+00)	(2.114188e+00 4.587089e+00 6.626597e+00)
2.772382e-02	propellerTip	(-2.115742e+00 -4.366833e+00 -6.540996e+00)	(2.028075e+00 4.561512e+00 6.525818e+00)
2.786571e-02	propellerTip	(-2.183611e+00 -4.340119e+00 -6.428611e+00)	(2.180120e+00 4.536338e+00 6.413586e+00)
2.800765e-02	propellerTip	(-2.486644e+00 -4.313163e+00 -6.305298e+00)	(2.482835e+00 4.511174e+00 6.290347e+00)
2.814963e-02	propellerTip	(-2.781362e+00 -4.286226e+00 -6.170538e+00)	(2.777039e+00 4.484762e+00 6.155668e+00)
2.829164e-02	propellerTip	(-3.066159e+00 -4.259394e+00 -6.024789e+00)	(3.061151e+00 4.456047e+00 6.009947e+00)
2.843366e-02	propellerTip	(-3.317471e+00 -4.233829e+00 -5.868609e+00)	(3.305225e+00 4.430440e+00 5.853718e+00)
2.857568e-02	propellerTip	(-3.545929e+00 -4.210379e+00 -5.702583e+00)	(3.535337e+00 4.411409e+00 5.688158e+00)
2.871770e-02	propellerTip	(-3.771467e+00 -4.184150e+00 -5.527611e+00)	(3.761444e+00 4.396201e+00 5.513924e+00)
2.885970e-02	propellerTip	(-3.990634e+00 -4.156422e+00 -5.343862e+00)	(3.981020e+00 4.384029e+00 5.331162e+00)
2.900167e-02	propellerTip	(-4.201450e+00 -4.129439e+00 -5.151412e+00)	(4.190892e+00 4.374415e+00 5.140008e+00)
2.914361e-02	propellerTip	(-4.409198e+00 -4.104221e+00 -4.950856e+00)	(4.402610e+00 4.364590e+00 4.940867e+00)
2.928552e-02	propellerTip	(-4.618981e+00 -4.083009e+00 -4.742861e+00)	(4.612140e+00 4.355432e+00 4.734221e+00)
2.942741e-02	propellerTip	(-4.819279e+00 -4.062741e+00 -4.526971e+00)	(4.812075e+00 4.347801e+00 4.519482e+00)
2.956926e-02	propellerTip	(-5.009857e+00 -4.045123e+00 -4.303744e+00)	(5.002226e+00 4.344209e+00 4.297450e+00)
2.971104e-02	propellerTip	(-5.190890e+00 -4.023264e+00 -4.073718e+00)	(5.183047e+00 4.344309e+00 4.068500e+00)
2.985275e-02	propellerTip	(-5.361503e+00 -4.004370e+00 -3.837350e+00)	(5.353203e+00 4.346172e+00 3.833139e+00)
2.999437e-02	propellerTip	(-5.521150e+00 -3.984604e+00 -3.595217e+00)	(5.512471e+00 4.349268e+00 3.591742e+00)
3.013591e-02	propellerTip	(-5.669394e+00 -3.966419e+00 -3.348493e+00)	(5.660201e+00 4.353940e+00 3.346402e+00)
3.027735e-02	propellerTip	(-5.806288e+00 -3.949984e+00 -3.093286e+00)	(5.797427e+00 4.360731e+00 3.092488e+00)
3.041870e-02	propellerTip	(-5.931964e+00 -3.934281e+00 -2.976640e+00)	(5.923600e+00 4.368066e+00 2.885387e+00)
3.055995e-02	propellerTip	(-6.046319e+00 -3.919373e+00 -2.987346e+00)	(6.038446e+00 4.375597e+00 2.883164e+00)
3.070111e-02	propellerTip	(-6.149498e+00 -3.904860e+00 -2.993168e+00)	(6.142027e+00 4.382468e+00 2.876498e+00)
3.084223e-02	propellerTip	(-6.241609e+00 -3.891065e+00 -2.991973e+00)	(6.234428e+00 4.389218e+00 2.860260e+00)
3.098333e-02	propellerTip	(-6.322506e+00 -3.876348e+00 -2.983902e+00)	(6.315583e+00 4.396708e+00 2.858056e+00)
3.112447e-02	propellerTip	(-6.391933e+00 -3.862246e+00 -2.971301e+00)	(6.385176e+00 4.404749e+00 2.896661e+00)
3.126569e-02	propellerTip	(-6.449879e+00 -3.849357e+00 -2.950882e+00)	(6.443322e+00 4.414308e+00 2.893303e+00)
3.140700e-02	propellerTip	(-6.496048e+00 -3.837131e+00 -2.923629e+00)	(6.489803e+00 4.426153e+00 2.884680e+00)
3.154844e-02	propellerTip	(-6.531071e+00 -3.825681e+00 -2.890113e+00)	(6.524973e+00 4.440476e+00 2.869894e+00)
3.169002e-02	propellerTip	(-6.554261e+00 -3.814509e+00 -2.850173e+00)	(6.548329e+00 4.456393e+00 2.850582e+00)
3.183176e-02	propellerTip	(-6.564163e+00 -3.804112e+00 -2.804473e+00)	(6.558869e+00 4.471082e+00 2.824822e+00)
3.197368e-02	propellerTip	(-6.562592e+00 -3.794471e+00 -2.753986e+00)	(6.559569e+00 4.485118e+00 2.792142e+00)
3.211579e-02	propellerTip	(-6.552203e+00 -3.785388e+00 -2.697393e+00)	(6.549991e+00 4.499322e+00 2.752235e+00)
3.225807e-02	propellerTip	(-6.530531e+00 -3.777142e+00 -2.633212e+00)	(6.529151e+00 4.513606e+00 2.705303e+00)
3.240052e-02	propellerTip	(-6.497434e+00 -3.769255e+00 -2.562756e+00)	(6.496844e+00 4.528173e+00 2.654009e+00)
3.254312e-02	propellerTip	(-6.452292e+00 -3.761919e+00 -2.499544e+00)	(6.452536e+00 4.545700e+00 2.596514e+00)
3.268587e-02	propellerTip	(-6.396366e+00 -3.755212e+00 -2.464815e+00)	(6.397506e+00 4.562090e+00 2.532949e+00)
3.282875e-02	propellerTip	(-6.328984e+00 -3.748554e+00 -2.467616e+00)	(6.331059e+00 4.577636e+00 2.482181e+00)
3.297172e-02	propellerTip	(-6.250563e+00 -3.742116e+00 -2.451187e+00)	(6.253460e+00 4.593893e+00 2.463231e+00)
3.311479e-02	propellerTip	(-6.161034e+00 -3.736310e+00 -2.664392e+00)	(6.164610e+00 4.613479e+00 2.674135e+00)
3.325792e-02	propellerTip	(-6.059466e+00 -3.732462e+00 -2.922192e+00)	(6.063616e+00 4.641790e+00 2.932682e+00)
3.340108e-02	propellerTip	(-5.946560e+00 -3.727301e+00 -3.173047e+00)	(5.950999e+00 4.673762e+00 3.184355e+00)
3.354426e-02	propellerTip	(-5.822989e+00 -3.720354e+00 -3.420171e+00)	(5.827590e+00 4.709160e+00 3.431071e+00)
3.368748e-02	propellerTip	(-5.688293e+00 -3.712511e+00 -3.671349e+00)	(5.693290e+00 4.746030e+00 3.679874e+00)
3.383072e-02	propellerTip	(-5.543011e+00 -3.706609e+00 -3.935138e+00)	(5.548186e+00 4.781563e+00 3.943278e+00)
3.397399e-02	propellerTip	(-5.386219e+00 -3.702154e+00 -4.194862e+00)	(5.391489e+00 4.817630e+00 4.202905e+00)
3.411727e-02	propellerTip	(-5.217893e+00 -3.699257e+00 -4.450046e+00)	(5.223282e+00 4.853991e+00 4.457976e+00)
3.426055e-02	propellerTip	(-5.037836e+00 -3.696951e+00 -4.699302e+00)	(5.043373e+00 4.890717e+00 4.706806e+00)
3.440384e-02	propellerTip	(-4.846118e+00 -3.693768e+00 -4.939256e+00)	(4.851725e+00 4.928969e+00 4.946410e+00)
3.454717e-02	propellerTip	(-4.642904e+00 -3.694920e+00 -5.171487e+00)	(4.648671e+00 4.968897e+00 5.178409e+00)
3.469055e-02	propellerTip	(-4.428775e+00 -3.695070e+00 -5.396039e+00)	(4.434669e+00 5.011014e+00 5.402884e+00)
3.483395e-02	propellerTip	(-4.204055e+00 -3.692303e+00 -5.612348e+00)	(4.209801e+00 5.054944e+00 5.618998e+00)
3.497737e-02	propellerTip	(-3.968686e+00 -3.690735e+00 -5.819845e+00)	(3.974217e+00 5.099622e+00 5.826109e+00)
3.512080e-02	propellerTip	(-3.723244e+00 -3.687842e+00 -6.018052e+00)	(3.728363e+00 5.145733e+00 6.023876e+00)
3.526422e-02	propellerTip	(-3.467496e+00 -3.686048e+00 -6.206144e+00)	(3.472239e+00 5.192702e+00 6.211580e+00)
3.540765e-02	propellerTip	(-3.249638e+00 -3.684663e+00 -6.383471e+00)	(3.206453e+00 5.240009e+00 6.388539e+00)
3.555110e-02	propellerTip	(-3.242414e+00 -3.684310e+00 -6.549263e+00)	(3.163222e+00 5.287169e+00 6.554029e+00)
3.569460e-02	propellerTip	(-3.228320e+00 -3.682889e+00 -6.702522e+00)	(3.174210e+00 5.333972e+00 6.707033e+00)
3.583814e-02	propellerTip	(-3.206955e+00 -3.680319e+00 -6.843177e+00)	(3.122653e+00 5.379886e+00 6.847268e+00)
3.598169e-02	propellerTip	(-3.178976e+00 -3.677898e+00 -6.970280e+00)	(3.124771e+00 5.425031e+00 6.973834e+00)
3.612523e-02	propellerTip	(-3.142758e+00 -3.675958e+00 -7.083245e+00)	(3.153637e+00 5.469420e+00 7.086349e+00)
3.626874e-02	propellerTip	(-3.099735e+00 -3.673606e+00 -7.181635e+00)	(3.131942e+00 5.513981e+00 7.184510e+00)
3.641226e-02	propellerTip	(-3.051253e+00 -3.671027e+00 -7.264553e+00)	(3.103618e+00 5.557502e+00 7.267287e+00)
3.655580e-02	propellerTip	(-2.997322e+00 -3.668440e+00 -7.331566e+00)	(3.068043e+00 5.598121e+00 7.334025e+00)
3.669935e-02	propellerTip	(-2.937749e+00 -3.665888e+00 -7.384000e+00)	(3.025791e+00 5.638900e+00 7.385953e+00)
3.684289e-02	propellerTip	(-2.872790e+00 -3.663252e+00 -7.420962e+00)	(2.978710e+00 5.676127e+00 7.422505e+00)
3.698640e-02	propellerTip	(-2.803385e+00 -3.660597e+00 -7.442829e+00)	(2.926346e+00 5.713871e+00 7.445799e+00)
3.712992e-02	propellerTip	(-2.729608e+00 -3.658176e+00 -7.449438e+00)	(2.867749e+00 5.749546e+00 7.453745e+00)
3.727346e-02	propellerTip	(-2.649834e+00 -3.655765e+00 -7.439295e+00)	(2.802000e+00 5.785711e+00 7.444594e+00)
3.741704e-02	propellerTip	(-2.612984e+00 -3.653653e+00 -7.412350e+00)	(2.732140e+00 5.814217e+00 7.418344e+00)